# vtk DataFile Version 4.1
Header:
ASCII

DATASET UNSTRUCTURED_GRID
POINTS 1824 double
-0.4166334903658234 -0.2020608904540137 -0.20206089045401382
-0.4041583725914558 -0.20206089045401368 -0.20824356181605533
-0.4041583725914558 -0.20824356181605516 -0.2020608904540138
-0.38333333333333386 -0.21152112512245624 -0.20206089045401382
-0.38333333333333386 -0.20533845376041476 -0.20824356181605533
-0.33333333333333387 -0.21517114367961798 -0.20206089045401382
-0.366666666666667 -0.20327756330640093 -0.2115211251224565
-0.31666666666666693 -0.20327756330640093 -0.2151711436796182
-0.31666666666666693 -0.2131102532256041 -0.20533845376041496
-0.29091815805930693 -0.21311025322560434 -0.20327756330640112
-0.29091815805930693 -0.20327756330640112 -0.21311025322560434
-0.2636726322372268 -0.20327756330640107 -0.20327756330640107
0.26367263223722626 -0.2032775633064009 -0.20327756330640107
0.2909181580593065 -0.2032775633064009 -0.21311025322560434
0.29091815805930643 -0.21311025322560412 -0.2032775633064011
0.31666666666666604 -0.21517114367961804 -0.20327756330640107
0.316666666666666 -0.20533845376041482 -0.21311025322560428
0.3666666666666661 -0.21152112512245627 -0.20327756330640107
0.33333333333333315 -0.2020608904540137 -0.2151711436796182
0.38333333333333314 -0.2020608904540137 -0.2115211251224564
0.38333333333333314 -0.20824356181605513 -0.20533845376041493
0.4041583725914558 -0.2082435618160553 -0.20206089045401385
0.4041583725914558 -0.20206089045401382 -0.2082435618160553
0.4166334903658233 -0.20206089045401382 -0.20206089045401382
-0.5203628884796102 -0.10712201623853124 -0.20447846585789167
-0.5050907221199027 -0.10712201623853125 -0.2179138634315667
-0.5050907221199027 -0.1284880649541259 -0.20447846585789173
-0.48749170592478974 -0.14515473162079234 -0.20447846585789173
-0.48749170592478974 -0.12378868290519768 -0.21791386343156674
-0.4499668236991572 -0.17378868290519764 -0.20447846585789173
-0.47082503925812264 -0.11666666666666597 -0.23028079655366523
-0.4208250392581226 -0.11666666666666597 -0.25394619834628507
-0.4333001570324902 -0.16666666666666596 -0.21684539897999022
-0.40415837259145554 -0.13333333333333297 -0.25152862294240713
-0.40415837259145554 -0.18333333333333296 -0.2206104949381538
-0.41663349036582314 -0.18333333333333296 -0.21442782357611231
-0.31666666666666593 -0.183333333333333 -0.22857714127116105
-0.31666666666666593 -0.133333333333333 -0.2589624441265859
-0.3666666666666659 -0.18333333333333296 -0.22492712271399934
-0.3333333333333329 -0.116666666666666 -0.26805181394228333
-0.3833333333333329 -0.11666666666666597 -0.26493462053395
-0.38333333333333297 -0.166666666666666 -0.23401649252969672
-0.20758482472597295 -0.16716813438006087 -0.20797832458523877
-0.20758482472597295 -0.1292920335950149 -0.2319132983409548
-0.23033929890389288 -0.1792920335950149 -0.2079783245852388
-0.22425149139263995 -0.11666666666666599 -0.24531929593249774
-0.27425149139264 -0.116666666666666 -0.26160231495140984
-0.24700596557055984 -0.16666666666666596 -0.22138432217678175
-0.2909181580593069 -0.13333333333333297 -0.25690155367257217
-0.290918158059307 -0.18333333333333296 -0.22651625081714724
-0.2636726322372268 -0.18333333333333293 -0.21668356089794402
-0.1894811593706652 -0.15050146771339484 -0.20797832458523874
-0.18948115937066523 -0.11262536692834889 -0.23191329834095475
-0.15792463748265978 -0.1126253669283489 -0.2079783245852388
0.1579246374826591 -0.11262536692834818 -0.2079783245852388
0.18948115937066476 -0.11262536692834817 -0.2319132983409549
0.18948115937066473 -0.15050146771339426 -0.2079783245852388
0.2075848247259731 -0.16716813438006098 -0.20797832458523874
0.20758482472597312 -0.12929203359501493 -0.23191329834095487
0.23033929890389288 -0.1792920335950149 -0.2079783245852388
0.2242514913926401 -0.11666666666666599 -0.2453192959324979
0.27425149139264005 -0.11666666666666599 -0.2616023149514099
0.24700596557055987 -0.16666666666666596 -0.22138432217678178
0.290918158059307 -0.13333333333333294 -0.2569015536725721
0.29091815805930704 -0.183333333333333 -0.22651625081714732
0.2636726322372268 -0.18333333333333293 -0.21668356089794405
0.38333333333333414 -0.18333333333333296 -0.22388805824455477
0.38333333333333414 -0.133333333333333 -0.2548061862488081
0.3333333333333341 -0.183333333333333 -0.2275380768017165
0.36666666666666714 -0.11666666666666599 -0.2661512933863372
0.31666666666666704 -0.11666666666666599 -0.2692684867946705
0.3166666666666671 -0.166666666666666 -0.23888318393924562
0.48749170592478974 -0.14515473162079223 -0.20447846585789173
0.48749170592478974 -0.12378868290519766 -0.21791386343156668
0.4499668236991573 -0.17378868290519764 -0.20447846585789167
0.4708250392581227 -0.11666666666666597 -0.23028079655366515
0.42082503925812276 -0.11666666666666597 -0.253946198346285
0.43330015703249025 -0.16666666666666596 -0.2168453989799902
0.40415837259145576 -0.133333333333333 -0.2515286229424071
0.4041583725914558 -0.18333333333333296 -0.22061049493815382
0.4166334903658233 -0.183333333333333 -0.21442782357611234
0.5050907221199024 -0.12848806495412624 -0.2044784658578917
0.5050907221199024 -0.10712201623853163 -0.21791386343156663
0.5203628884796099 -0.10712201623853165 -0.2044784658578917
-0.5413125175457032 -0.016666666666666004 -0.2079783245852388
-0.5141461709763527 -0.016666666666666004 -0.2319132983409548
-0.5294183373360604 -0.06666666666666599 -0.20797832458523877
-0.5050907221199022 -0.033333333333333 -0.23639176419884658
-0.5050907221199024 -0.08333333333333298 -0.22589218801680558
-0.52036288847961 -0.08333333333333298 -0.21245679044313057
-0.41666666666666596 -0.08333333333333298 -0.26934893132784576
-0.41666666666666596 -0.03333333333333299 -0.27845633090623306
-0.466666666666666 -0.083333333333333 -0.24568352953522601
-0.433333333333333 -0.016666666666666004 -0.2740677223693734
-0.483333333333333 -0.016666666666666004 -0.2517944971804073
-0.48333333333333306 -0.066666666666666 -0.24129492099836627
-0.31666666666666593 -0.08333333333333298 -0.2823470611179873
-0.316666666666666 -0.03333333333333299 -0.29119748123251377
-0.366666666666666 -0.083333333333333 -0.27922986770965413
-0.3333333333333329 -0.016666666666666004 -0.29319421662253187
-0.38333333333333286 -0.016666666666666004 -0.29033400267805926
-0.38333333333333297 -0.066666666666666 -0.2812266030996721
-0.21666666666666598 -0.083333333333333 -0.2566224513237038
-0.21666666666666598 -0.03333333333333299 -0.26659694374160775
-0.266666666666666 -0.08333333333333298 -0.272905470342616
-0.23333333333333298 -0.016666666666666007 -0.27497475678608746
-0.2833333333333329 -0.016666666666666004 -0.2901337035016221
-0.28333333333333294 -0.06666666666666601 -0.28128328338709563
-0.13010188155327274 -0.016666666666666004 -0.2113031553912068
-0.17463633991631689 -0.016666666666666004 -0.24521262156482673
-0.14307981802831143 -0.06666666666666599 -0.21130315539120678
-0.18948115937066523 -0.033333333333333 -0.2531909461500656
-0.18948115937066523 -0.083333333333333 -0.24321645373216166
-0.15792463748265978 -0.08333333333333298 -0.21928147997644562
0.13010188155327268 -0.016666666666666004 -0.21130315539120686
0.17463633991631697 -0.016666666666666004 -0.24521262156482684
0.14307981802831138 -0.06666666666666599 -0.21130315539120686
0.1894811593706654 -0.033333333333333 -0.2531909461500657
0.18948115937066543 -0.08333333333333298 -0.24321645373216177
0.15792463748265975 -0.08333333333333297 -0.21928147997644568
0.283333333333334 -0.08333333333333298 -0.2779584525811279
0.283333333333334 -0.03333333333333299 -0.2868088726956544
0.23333333333333411 -0.083333333333333 -0.2616754335622159
0.2666666666666671 -0.016666666666666007 -0.2847060304953183
0.21666666666666715 -0.016666666666666004 -0.26954708377978376
0.21666666666666715 -0.066666666666666 -0.2595725913618798
0.38333333333333414 -0.08333333333333298 -0.2782764630614964
0.38333333333333414 -0.03333333333333299 -0.28738386263988364
0.33333333333333404 -0.08333333333333298 -0.2813936564698298
0.3666666666666671 -0.016666666666666007 -0.29137306714750366
0.316666666666667 -0.016666666666665997 -0.2942332810919762
0.3166666666666671 -0.066666666666666 -0.2853828609774497
0.48333333333333406 -0.08333333333333298 -0.23825912113890327
0.4833333333333341 -0.033333333333333 -0.2487586973209443
0.43333333333333407 -0.083333333333333 -0.26192452293152313
0.4666666666666671 -0.016666666666666007 -0.25968296444461353
0.416666666666667 -0.016666666666666004 -0.2819561896335795
0.41666666666666713 -0.066666666666666 -0.27284879005519236
0.541312517545703 -0.016666666666666004 -0.20797832458523877
0.5141461709763527 -0.016666666666666007 -0.23191329834095478
0.5294183373360601 -0.06666666666666599 -0.2079783245852388
0.5050907221199024 -0.033333333333333 -0.2363917641988465
0.5050907221199024 -0.083333333333333 -0.2258921880168055
0.5203628884796099 -0.08333333333333298 -0.21245679044313048
-0.5294183373360601 0.08333333333333406 -0.2044784658578917
-0.5141461709763525 0.08333333333333408 -0.21791386343156666
-0.5413125175457029 0.03333333333333402 -0.2044784658578917
-0.5090554488564498 0.06666666666666707 -0.22589218801680555
-0.5090554488564498 0.01666666666666701 -0.23639176419884658
-0.5362217954258002 0.01666666666666701 -0.21245679044313057
-0.4166666666666659 0.016666666666667006 -0.2819561896335798
-0.41666666666666596 0.06666666666666705 -0.27284879005519264
-0.46666666666666595 0.01666666666666701 -0.2596829644446139
-0.43333333333333296 0.08333333333333406 -0.2619245229315234
-0.483333333333333 0.08333333333333406 -0.23825912113890355
-0.483333333333333 0.03333333333333402 -0.24875869732094463
-0.3166666666666659 0.01666666666666701 -0.29423328109197605
-0.31666666666666593 0.06666666666666705 -0.2853828609774496
-0.366666666666666 0.01666666666666701 -0.2913730671475035
-0.33333333333333287 0.08333333333333406 -0.28139365646982956
-0.3833333333333329 0.08333333333333408 -0.2782764630614963
-0.38333333333333297 0.03333333333333403 -0.28738386263988364
[...]
POINT_DATA 1824
SCALARS element_ids double 1
LOOKUP_TABLE default
2945
2945
2945
2946
2946
2946
2946
2946
2946
2947
2947
2947
2952
2952
2952
2953
2953
2953
2953
2953
2953
2954
2954
2954
2964
2964
2964
2965
2965
2965
2965
2965
2965
2965
2965
2965
2966
2966
2966
2966
2966
2966
2967
2967
2967
2967
2967
2967
2967
2967
2967
2968
2968
2968
2971
2971
2971
2972
2972
2972
2972
2972
2972
2972
2972
2972
2973
2973
2973
2973
2973
2973
2974
2974
2974
2974
2974
2974
2974
2974
2974
2975
2975
2975
2984
2984
2984
2984
2984
2984
2985
2985
2985
2985
2985
2985
2986
2986
2986
2986
2986
2986
2987
2987
2987
2987
2987
2987
2988
2988
2988
2988
2988
2988
2991
2991
2991
2991
2991
2991
2992
2992
2992
2992
2992
2992
2993
2993
2993
2993
2993
2993
2994
2994
2994
2994
2994
2994
2995
2995
2995
2995
2995
2995
3004
3004
3004
3004
3004
3004
3005
3005
3005
3005
3005
3005
3006
3006
3006
3006
3006
3006
3007
3007
3007
3007
3007
3007
3008
3008
3008
3008
3008
3008
3011
3011
3011
3011
3011
3011
3012
3012
3012
3012
3012
3012
3013
3013
3013
3013
3013
3013
3014
3014
3014
3014
3014
3014
3015
3015
3015
3015
3015
3015
3024
3024
3024
3025
3025
3025
3025
3025
3025
3025
3025
3025
3026
3026
3026
3026
3026
3026
3027
3027
3027
3027
3027
3027
3027
3027
3027
3028
3028
3028
3031
3031
3031
3032
3032
3032
3032
3032
3032
3032
3032
3032
3033
3033
3033
3033
3033
3033
3034
3034
3034
3034
3034
3034
3034
3034
3034
3035
3035
3035
3045
3045
3045
3046
3046
3046
3046
3046
3046
3047
3047
3047
3052
3052
3052
3053
3053
3053
3053
3053
3053
3054
3054
3054
3344
3344
3344
3345
3345
3345
3345
3345
3345
3345
3345
3345
3346
3346
3346
3346
3346
3346
3347
3347
3347
3347
3347
3347
3347
3347
3347
3348
3348
3348
3351
3351
3351
3352
3352
3352
3352
3352
3352
3352
3352
3352
3353
3353
3353
3353
3353
3353
3354
3354
3354
3354
3354
3354
3354
3354
3354
3355
3355
3355
3364
3364
3364
3364
3364
3364
3364
3364
3364
3365
3365
3365
3367
3367
3367
3368
3368
3368
3368
3368
3368
3368
3368
3368
3368
3368
3368
3369
3369
3369
3370
3370
3370
3371
3371
3371
3371
3371
3371
3371
3371
3371
3371
3371
3371
3372
3372
3372
3374
3374
3374
3375
3375
3375
3375
3375
3375
3375
3375
3375
3383
3383
3383
3384
3384
3384
3384
3384
3384
3384
3384
3384
3388
3388
3388
3388
3388
3388
3389
3389
3389
3389
3389
3389
3390
3390
3390
3390
3390
3390
3391
3391
3391
3391
3391
3391
3395
3395
3395
3395
3395
3395
3395
3395
3395
3396
3396
3396
3403
3403
3403
3404
3404
3404
3404
3404
3404
3404
3404
3404
3408
3408
3408
3408
3408
3408
3409
3409
3409
3409
3409
3409
3410
3410
3410
3410
3410
3410
3411
3411
3411
3411
3411
3411
3415
3415
3415
3415
3415
3415
3415
3415
3415
3416
3416
3416
3424
3424
3424
3424
3424
3424
3424
3424
3424
3425
3425
3425
3427
3427
3427
3428
3428
3428
3428
3428
3428
3428
3428
3428
3428
3428
3428
3429
3429
3429
3430
3430
3430
3431
3431
3431
3431
3431
3431
3431
3431
3431
3431
3431
3431
3432
3432
3432
3434
3434
3434
3435
3435
3435
3435
3435
3435
3435
3435
3435
3444
3444
3444
3445
3445
3445
3445
3445
3445
3445
3445
3445
3446
3446
3446
3446
3446
3446
3447
3447
3447
3447
3447
3447
3447
3447
3447
3448
3448
3448
3451
3451
3451
3452
3452
3452
3452
3452
3452
3452
3452
3452
3453
3453
3453
3453
3453
3453
3454
3454
3454
3454
3454
3454
3454
3454
3454
3455
3455
3455
3744
3744
3744
3744
3744
3744
3745
3745
3745
3745
3745
3745
3746
3746
3746
3746
3746
3746
3747
3747
3747
3747
3747
3747
3748
3748
3748
3748
3748
3748
3751
3751
3751
3751
3751
3751
3752
3752
3752
3752
3752
3752
3753
3753
3753
3753
3753
3753
3754
3754
3754
3754
3754
3754
3755
3755
3755
3755
3755
3755
3763
3763
3763
3764
3764
3764
3764
3764
3764
3764
3764
3764
3768
3768
3768
3768
3768
3768
3769
3769
3769
3769
3769
3769
3770
3770
3770
3770
3770
3770
3771
3771
3771
3771
3771
3771
3775
3775
3775
3775
3775
3775
3775
3775
3775
3776
3776
3776
3783
3783
3783
3783
3783
3783
3783
3783
3783
3784
3784
3784
3789
3789
3789
3789
3789
3789
3790
3790
3790
3790
3790
3790
3795
3795
3795
3796
3796
3796
3796
3796
3796
3796
3796
3796
3803
3803
3803
3803
3803
3803
3803
3803
3803
3804
3804
3804
3809
3809
3809
3809
3809
3809
3810
3810
3810
3810
3810
3810
3815
3815
3815
3816
3816
3816
3816
3816
3816
3816
3816
3816
3823
3823
3823
3824
3824
3824
3824
3824
3824
3824
3824
3824
3828
3828
3828
3828
3828
3828
3829
3829
3829
3829
3829
3829
3830
3830
3830
3830
3830
3830
3831
3831
3831
3831
3831
3831
3835
3835
3835
3835
3835
3835
3835
3835
3835
3836
3836
3836
3844
3844
3844
3844
3844
3844
3845
3845
3845
3845
3845
3845
3846
3846
3846
3846
3846
3846
3847
3847
3847
3847
3847
3847
3848
3848
3848
3848
3848
3848
3851
3851
3851
3851
3851
3851
3852
3852
3852
3852
3852
3852
3853
3853
3853
3853
3853
3853
3854
3854
3854
3854
3854
3854
3855
3855
3855
3855
3855
3855
4144
4144
4144
4144
4144
4144
4145
4145
4145
4145
4145
4145
4146
4146
4146
4146
4146
4146
4147
4147
4147
4147
4147
4147
4148
4148
4148
4148
4148
4148
4151
4151
4151
4151
4151
4151
4152
4152
4152
4152
4152
4152
4153
4153
4153
4153
4153
4153
4154
4154
4154
4154
4154
4154
4155
4155
4155
4155
4155
4155
4163
4163
4163
4164
4164
4164
4164
4164
4164
4164
4164
4164
4168
4168
4168
4168
4168
4168
4169
4169
4169
4169
4169
4169
4170
4170
4170
4170
4170
4170
4171
4171
4171
4171
4171
4171
4175
4175
4175
4175
4175
4175
4175
4175
4175
4176
4176
4176
4183
4183
4183
4183
4183
4183
4183
4183
4183
4184
4184
4184
4189
4189
4189
4189
4189
4189
4190
4190
4190
4190
4190
4190
4195
4195
4195
4196
4196
4196
4196
4196
4196
4196
4196
4196
4203
4203
4203
4203
4203
4203
4203
4203
4203
4204
4204
4204
4209
4209
4209
4209
4209
4209
4210
4210
4210
4210
4210
4210
4215
4215
4215
4216
4216
4216
4216
4216
4216
4216
4216
4216
4223
4223
4223
4224
4224
4224
4224
4224
4224
4224
4224
4224
4228
4228
4228
4228
4228
4228
4229
4229
4229
4229
4229
4229
4230
4230
4230
4230
4230
4230
4231
4231
4231
4231
4231
4231
4235
4235
4235
4235
4235
4235
4235
4235
4235
4236
4236
4236
4244
4244
4244
4244
4244
4244
4245
4245
4245
4245
4245
4245
4246
4246
4246
4246
4246
4246
4247
4247
4247
4247
4247
4247
4248
4248
4248
4248
4248
4248
4251
4251
4251
4251
4251
4251
4252
4252
4252
4252
4252
4252
4253
4253
4253
4253
4253
4253
4254
4254
4254
4254
4254
4254
4255
4255
4255
4255
4255
4255
4544
4544
4544
4545
4545
4545
4545
4545
4545
4545
4545
4545
4546
4546
4546
4546
4546
4546
4547
4547
4547
4547
4547
4547
4547
4547
4547
4548
4548
4548
4551
4551
4551
4552
4552
4552
4552
4552
4552
4552
4552
4552
4553
4553
4553
4553
4553
4553
4554
4554
4554
4554
4554
4554
4554
4554
4554
4555
4555
4555
4564
4564
4564
4564
4564
4564
4564
4564
4564
4565
4565
4565
4567
4567
4567
4568
4568
4568
4568
4568
4568
4568
4568
4568
4568
4568
4568
4569
4569
4569
4570
4570
4570
4571
4571
4571
4571
4571
4571
4571
4571
4571
4571
4571
4571
4572
4572
4572
4574
4574
4574
4575
4575
4575
4575
4575
4575
4575
4575
4575
4583
4583
4583
4584
4584
4584
4584
4584
4584
4584
4584
4584
4588
4588
4588
4588
4588
4588
4589
4589
4589
4589
4589
4589
4590
4590
4590
4590
4590
4590
4591
4591
4591
4591
4591
4591
4595
4595
4595
4595
4595
4595
4595
4595
4595
4596
4596
4596
4603
4603
4603
4604
4604
4604
4604
4604
4604
4604
4604
4604
4608
4608
4608
4608
4608
4608
4609
4609
4609
4609
4609
4609
4610
4610
4610
4610
4610
4610
4611
4611
4611
4611
4611
4611
4615
4615
4615
4615
4615
4615
4615
4615
4615
4616
4616
4616
4624
4624
4624
4624
4624
4624
4624
4624
4624
4625
4625
4625
4627
4627
4627
4628
4628
4628
4628
4628
4628
4628
4628
4628
4628
4628
4628
4629
4629
4629
4630
4630
4630
4631
4631
4631
4631
4631
4631
4631
4631
4631
4631
4631
4631
4632
4632
4632
4634
4634
4634
4635
4635
4635
4635
4635
4635
4635
4635
4635
4644
4644
4644
4645
4645
4645
4645
4645
4645
4645
4645
4645
4646
4646
4646
4646
4646
4646
4647
4647
4647
4647
4647
4647
4647
4647
4647
4648
4648
4648
4651
4651
4651
4652
4652
4652
4652
4652
4652
4652
4652
4652
4653
4653
4653
4653
4653
4653
4654
4654
4654
4654
4654
4654
4654
4654
4654
4655
4655
4655
4945
4945
4945
4946
4946
4946
4946
4946
4946
4947
4947
4947
4952
4952
4952
4953
4953
4953
4953
4953
4953
4954
4954
4954
4964
4964
4964
4965
4965
4965
4965
4965
4965
4965
4965
4965
4966
4966
4966
4966
4966
4966
4967
4967
4967
4967
4967
4967
4967
4967
4967
4968
4968
4968
4971
4971
4971
4972
4972
4972
4972
4972
4972
4972
4972
4972
4973
4973
4973
4973
4973
4973
4974
4974
4974
4974
4974
4974
4974
4974
4974
4975
4975
4975
4984
4984
4984
4984
4984
4984
4985
4985
4985
4985
4985
4985
4986
4986
4986
4986
4986
4986
4987
4987
4987
4987
4987
4987
4988
4988
4988
4988
4988
4988
4991
4991
4991
4991
4991
4991
4992
4992
4992
4992
4992
4992
4993
4993
4993
4993
4993
4993
4994
4994
4994
4994
4994
4994
4995
4995
4995
4995
4995
4995
5004
5004
5004
5004
5004
5004
5005
5005
5005
5005
5005
5005
5006
5006
5006
5006
5006
5006
5007
5007
5007
5007
5007
5007
5008
5008
5008
5008
5008
5008
5011
5011
5011
5011
5011
5011
5012
5012
5012
5012
5012
5012
5013
5013
5013
5013
5013
5013
5014
5014
5014
5014
5014
5014
5015
5015
5015
5015
5015
5015
5024
5024
5024
5025
5025
5025
5025
5025
5025
5025
5025
5025
5026
5026
5026
5026
5026
5026
5027
5027
5027
5027
5027
5027
5027
5027
5027
5028
5028
5028
5031
5031
5031
5032
5032
5032
5032
5032
5032
5032
5032
5032
5033
5033
5033
5033
5033
5033
5034
5034
5034
5034
5034
5034
5034
5034
5034
5035
5035
5035
5045
5045
5045
5046
5046
5046
5046
5046
5046
5047
5047
5047
5052
5052
5052
5053
5053
5053
5053
5053
5053
5054
5054
5054

