# vtk DataFile Version 4.1
Header:
ASCII

DATASET UNSTRUCTURED_GRID
POINTS 9261 double
-1 -1 -1
-0.9 -1 -1
-0.8 -1 -1
-0.7 -1 -1
-0.6 -1 -1
-0.5 -1 -1
-0.3999999999999999 -1 -1
-0.29999999999999993 -1 -1
-0.19999999999999996 -1 -1
-0.09999999999999998 -1 -1
0 -1 -1
0.10000000000000009 -1 -1
0.20000000000000018 -1 -1
0.30000000000000004 -1 -1
0.40000000000000013 -1 -1
0.5 -1 -1
0.6000000000000001 -1 -1
0.7000000000000002 -1 -1
0.8 -1 -1
0.9000000000000001 -1 -1
1 -1 -1
-1 -0.9 -1
-0.9 -0.9 -1
-0.8 -0.9 -1
-0.7 -0.9 -1
-0.6 -0.9 -1
-0.5 -0.9 -1
-0.3999999999999999 -0.9 -1
-0.29999999999999993 -0.9 -1
-0.19999999999999996 -0.9 -1
-0.09999999999999998 -0.9 -1
0 -0.9 -1
0.10000000000000009 -0.9 -1
0.20000000000000018 -0.9 -1
0.30000000000000004 -0.9 -1
0.40000000000000013 -0.9 -1
0.5 -0.9 -1
0.6000000000000001 -0.9 -1
0.7000000000000002 -0.9 -1
0.8 -0.9 -1
0.9000000000000001 -0.9 -1
1 -0.9 -1
-1 -0.8 -1
-0.9 -0.8 -1
-0.8 -0.8 -1
-0.7 -0.8 -1
-0.6 -0.8 -1
-0.5 -0.8 -1
-0.3999999999999999 -0.8 -1
-0.29999999999999993 -0.8 -1
-0.19999999999999996 -0.8 -1
-0.09999999999999998 -0.8 -1
0 -0.8 -1
0.10000000000000009 -0.8 -1
0.20000000000000018 -0.8 -1
0.30000000000000004 -0.8 -1
0.40000000000000013 -0.8 -1
0.5 -0.8 -1
0.6000000000000001 -0.8 -1
0.7000000000000002 -0.8 -1
0.8 -0.8 -1
0.9000000000000001 -0.8 -1
1 -0.8 -1
-1 -0.7 -1
-0.9 -0.7 -1
-0.8 -0.7 -1
-0.7 -0.7 -1
-0.6 -0.7 -1
-0.5 -0.7 -1
-0.3999999999999999 -0.7 -1
-0.29999999999999993 -0.7 -1
-0.19999999999999996 -0.7 -1
-0.09999999999999998 -0.7 -1
0 -0.7 -1
0.10000000000000009 -0.7 -1
0.20000000000000018 -0.7 -1
0.30000000000000004 -0.7 -1
0.40000000000000013 -0.7 -1
0.5 -0.7 -1
0.6000000000000001 -0.7 -1
0.7000000000000002 -0.7 -1
0.8 -0.7 -1
0.9000000000000001 -0.7 -1
1 -0.7 -1
-1 -0.6 -1
-0.9 -0.6 -1
-0.8 -0.6 -1
-0.7 -0.6 -1
-0.6 -0.6 -1
-0.5 -0.6 -1
-0.3999999999999999 -0.6 -1
-0.29999999999999993 -0.6 -1
-0.19999999999999996 -0.6 -1
-0.09999999999999998 -0.6 -1
0 -0.6 -1
0.10000000000000009 -0.6 -1
0.20000000000000018 -0.6 -1
0.30000000000000004 -0.6 -1
0.40000000000000013 -0.6 -1
0.5 -0.6 -1
0.6000000000000001 -0.6 -1
0.7000000000000002 -0.6 -1
0.8 -0.6 -1
0.9000000000000001 -0.6 -1
1 -0.6 -1
-1 -0.5 -1
-0.9 -0.5 -1
-0.8 -0.5 -1
-0.7 -0.5 -1
-0.6 -0.5 -1
-0.5 -0.5 -1
-0.3999999999999999 -0.5 -1
-0.29999999999999993 -0.5 -1
-0.19999999999999996 -0.5 -1
-0.09999999999999998 -0.5 -1
0 -0.5 -1
0.10000000000000009 -0.5 -1
0.20000000000000018 -0.5 -1
0.30000000000000004 -0.5 -1
0.40000000000000013 -0.5 -1
0.5 -0.5 -1
0.6000000000000001 -0.5 -1
0.7000000000000002 -0.5 -1
0.8 -0.5 -1
0.9000000000000001 -0.5 -1
1 -0.5 -1
-1 -0.3999999999999999 -1
-0.9 -0.3999999999999999 -1
-0.8 -0.3999999999999999 -1
-0.7 -0.3999999999999999 -1
-0.6 -0.3999999999999999 -1
-0.5 -0.3999999999999999 -1
-0.3999999999999999 -0.3999999999999999 -1
-0.29999999999999993 -0.3999999999999999 -1
-0.19999999999999996 -0.3999999999999999 -1
-0.09999999999999998 -0.3999999999999999 -1
0 -0.3999999999999999 -1
0.10000000000000009 -0.3999999999999999 -1
0.20000000000000018 -0.3999999999999999 -1
0.30000000000000004 -0.3999999999999999 -1
0.40000000000000013 -0.3999999999999999 -1
0.5 -0.3999999999999999 -1
0.6000000000000001 -0.3999999999999999 -1
0.7000000000000002 -0.3999999999999999 -1
0.8 -0.3999999999999999 -1
0.9000000000000001 -0.3999999999999999 -1
1 -0.3999999999999999 -1
-1 -0.29999999999999993 -1
-0.9 -0.29999999999999993 -1
-0.8 -0.29999999999999993 -1
-0.7 -0.29999999999999993 -1
-0.6 -0.29999999999999993 -1
-0.5 -0.29999999999999993 -1
-0.3999999999999999 -0.29999999999999993 -1
-0.29999999999999993 -0.29999999999999993 -1
-0.19999999999999996 -0.29999999999999993 -1
-0.09999999999999998 -0.29999999999999993 -1
0 -0.29999999999999993 -1
0.10000000000000009 -0.29999999999999993 -1
0.20000000000000018 -0.29999999999999993 -1
0.30000000000000004 -0.29999999999999993 -1
0.40000000000000013 -0.29999999999999993 -1
0.5 -0.29999999999999993 -1
0.6000000000000001 -0.29999999999999993 -1
0.7000000000000002 -0.29999999999999993 -1
0.8 -0.29999999999999993 -1
0.9000000000000001 -0.29999999999999993 -1
1 -0.29999999999999993 -1
-1 -0.19999999999999996 -1
-0.9 -0.19999999999999996 -1
-0.8 -0.19999999999999996 -1
-0.7 -0.19999999999999996 -1
-0.6 -0.19999999999999996 -1
-0.5 -0.19999999999999996 -1
-0.3999999999999999 -0.19999999999999996 -1
-0.29999999999999993 -0.19999999999999996 -1
-0.19999999999999996 -0.19999999999999996 -1
-0.09999999999999998 -0.19999999999999996 -1
0 -0.19999999999999996 -1
0.10000000000000009 -0.19999999999999996 -1
0.20000000000000018 -0.19999999999999996 -1
0.30000000000000004 -0.19999999999999996 -1
0.40000000000000013 -0.19999999999999996 -1
0.5 -0.19999999999999996 -1
0.6000000000000001 -0.19999999999999996 -1
0.7000000000000002 -0.19999999999999996 -1
0.8 -0.19999999999999996 -1
0.9000000000000001 -0.19999999999999996 -1
1 -0.19999999999999996 -1
-1 -0.09999999999999998 -1
-0.9 -0.09999999999999998 -1
-0.8 -0.09999999999999998 -1
-0.7 -0.09999999999999998 -1
-0.6 -0.09999999999999998 -1
-0.5 -0.09999999999999998 -1
-0.3999999999999999 -0.09999999999999998 -1
-0.29999999999999993 -0.09999999999999998 -1
-0.19999999999999996 -0.09999999999999998 -1
-0.09999999999999998 -0.09999999999999998 -1
0 -0.09999999999999998 -1
0.10000000000000009 -0.09999999999999998 -1
0.20000000000000018 -0.09999999999999998 -1
0.30000000000000004 -0.09999999999999998 -1
0.40000000000000013 -0.09999999999999998 -1
0.5 -0.09999999999999998 -1
0.6000000000000001 -0.09999999999999998 -1
0.7000000000000002 -0.09999999999999998 -1
0.8 -0.09999999999999998 -1
0.9000000000000001 -0.09999999999999998 -1
1 -0.09999999999999998 -1
-1 0 -1
-0.9 0 -1
-0.8 0 -1
-0.7 0 -1
-0.6 0 -1
-0.5 0 -1
-0.3999999999999999 0 -1
-0.29999999999999993 0 -1
-0.19999999999999996 0 -1
-0.09999999999999998 0 -1
0 0 -1
0.10000000000000009 0 -1
0.20000000000000018 0 -1
0.30000000000000004 0 -1
0.40000000000000013 0 -1
0.5 0 -1
0.6000000000000001 0 -1
0.7000000000000002 0 -1
0.8 0 -1
0.9000000000000001 0 -1
1 0 -1
-1 0.10000000000000009 -1
-0.9 0.10000000000000009 -1
-0.8 0.10000000000000009 -1
-0.7 0.10000000000000009 -1
-0.6 0.10000000000000009 -1
-0.5 0.10000000000000009 -1
-0.3999999999999999 0.10000000000000009 -1
-0.29999999999999993 0.10000000000000009 -1
-0.19999999999999996 0.10000000000000009 -1
-0.09999999999999998 0.10000000000000009 -1
0 0.10000000000000009 -1
0.10000000000000009 0.10000000000000009 -1
0.20000000000000018 0.10000000000000009 -1
0.30000000000000004 0.10000000000000009 -1
0.40000000000000013 0.10000000000000009 -1
0.5 0.10000000000000009 -1
0.6000000000000001 0.10000000000000009 -1
0.7000000000000002 0.10000000000000009 -1
0.8 0.10000000000000009 -1
0.9000000000000001 0.10000000000000009 -1
1 0.10000000000000009 -1
-1 0.20000000000000018 -1
-0.9 0.20000000000000018 -1
-0.8 0.20000000000000018 -1
-0.7 0.20000000000000018 -1
-0.6 0.20000000000000018 -1
-0.5 0.20000000000000018 -1
-0.3999999999999999 0.20000000000000018 -1
-0.29999999999999993 0.20000000000000018 -1
-0.19999999999999996 0.20000000000000018 -1
-0.09999999999999998 0.20000000000000018 -1
0 0.20000000000000018 -1
0.10000000000000009 0.20000000000000018 -1
0.20000000000000018 0.20000000000000018 -1
0.30000000000000004 0.20000000000000018 -1
0.40000000000000013 0.20000000000000018 -1
0.5 0.20000000000000018 -1
0.6000000000000001 0.20000000000000018 -1
0.7000000000000002 0.20000000000000018 -1
0.8 0.20000000000000018 -1
0.9000000000000001 0.20000000000000018 -1
1 0.20000000000000018 -1
-1 0.30000000000000004 -1
-0.9 0.30000000000000004 -1
-0.8 0.30000000000000004 -1
-0.7 0.30000000000000004 -1
-0.6 0.30000000000000004 -1
-0.5 0.30000000000000004 -1
-0.3999999999999999 0.30000000000000004 -1
-0.29999999999999993 0.30000000000000004 -1
-0.19999999999999996 0.30000000000000004 -1
-0.09999999999999998 0.30000000000000004 -1
0 0.30000000000000004 -1
0.10000000000000009 0.30000000000000004 -1
0.20000000000000018 0.30000000000000004 -1
0.30000000000000004 0.30000000000000004 -1
0.40000000000000013 0.30000000000000004 -1
0.5 0.30000000000000004 -1
0.6000000000000001 0.30000000000000004 -1
0.7000000000000002 0.30000000000000004 -1
0.8 0.30000000000000004 -1
0.9000000000000001 0.30000000000000004 -1
1 0.30000000000000004 -1
-1 0.40000000000000013 -1
-0.9 0.40000000000000013 -1
-0.8 0.40000000000000013 -1
-0.7 0.40000000000000013 -1
-0.6 0.40000000000000013 -1
-0.5 0.40000000000000013 -1
-0.3999999999999999 0.40000000000000013 -1
-0.29999999999999993 0.40000000000000013 -1
-0.19999999999999996 0.40000000000000013 -1
-0.09999999999999998 0.40000000000000013 -1
0 0.40000000000000013 -1
0.10000000000000009 0.40000000000000013 -1
0.20000000000000018 0.40000000000000013 -1
0.30000000000000004 0.40000000000000013 -1
0.40000000000000013 0.40000000000000013 -1
0.5 0.40000000000000013 -1
0.6000000000000001 0.40000000000000013 -1
0.7000000000000002 0.40000000000000013 -1
0.8 0.40000000000000013 -1
0.9000000000000001 0.40000000000000013 -1
1 0.40000000000000013 -1
-1 0.5 -1
-0.9 0.5 -1
-0.8 0.5 -1
-0.7 0.5 -1
-0.6 0.5 -1
-0.5 0.5 -1
-0.3999999999999999 0.5 -1
-0.29999999999999993 0.5 -1
-0.19999999999999996 0.5 -1
-0.09999999999999998 0.5 -1
0 0.5 -1
0.10000000000000009 0.5 -1
0.20000000000000018 0.5 -1
0.30000000000000004 0.5 -1
0.40000000000000013 0.5 -1
0.5 0.5 -1
0.6000000000000001 0.5 -1
0.7000000000000002 0.5 -1
0.8 0.5 -1
0.9000000000000001 0.5 -1
1 0.5 -1
-1 0.6000000000000001 -1
-0.9 0.6000000000000001 -1
-0.8 0.6000000000000001 -1
-0.7 0.6000000000000001 -1
-0.6 0.6000000000000001 -1
-0.5 0.6000000000000001 -1
-0.3999999999999999 0.6000000000000001 -1
-0.29999999999999993 0.6000000000000001 -1
-0.19999999999999996 0.6000000000000001 -1
-0.09999999999999998 0.6000000000000001 -1
0 0.6000000000000001 -1
0.10000000000000009 0.6000000000000001 -1
0.20000000000000018 0.6000000000000001 -1
0.30000000000000004 0.6000000000000001 -1
0.40000000000000013 0.6000000000000001 -1
0.5 0.6000000000000001 -1
0.6000000000000001 0.6000000000000001 -1
[...]
POINT_DATA 9261
SCALARS temperature double 1
LOOKUP_TABLE default
100
89.93966354471445
79.88564938422647
69.84351572120646
59.817411855998934
49.80965216674357
39.820566750846105
29.848626229910703
19.890774488411964
9.942861400554936
6.958049561487235E-05
-9.942723717948432
-19.89064122846869
-29.848500311633646
-39.82045107811545
-49.80954963967135
-59.81732533940601
-69.84344793156549
-79.88560269021983
-89.93963972056646
-100
100
89.93806101830226
79.88263949878375
69.83945838041569
59.81277547299522
49.80494194972623
39.816253243881505
29.84509141291809
19.88828718250849
9.941581665073869
6.895584561012212E-05
-9.941445202284141
-19.888155055280105
-29.844966488701367
-39.81613838784069
-49.80484004394404
-59.81268938886024
-69.83939086214639
-79.88259295403819
-89.93803725785807
-100
100
89.93332245938463
79.87374149560411
69.82746911951611
59.79908506960553
49.79104807289977
39.803546628953846
29.834694326901527
19.88098159303348
9.937826720842223
6.695130593240845E-05
-9.937694173737178
-19.88085310753105
-29.834572610406973
-39.803434429216026
-49.79094821738793
-59.79900044640573
-69.82740255028796
-79.87369549613062
-89.93329894148134
-100
100
89.92567543923569
79.85938797331109
69.80814482036769
59.77704871844406
49.76872843928712
39.78318653816317
29.81808310134291
19.869341758049277
9.93185588053201
6.312769454039244E-05
-9.931730810168032
-19.8692202505207
-29.81796758196853
-39.78307954994447
-49.76863271118863
-59.77696715347444
-69.80808034411425
-79.85934324999658
-89.92565251853728
-100
100
89.91555997728544
79.8404113269734
69.7826238228473
59.747998826142116
49.739384457227196
39.75651356004535
29.79640958416203
19.85421378708824
9.924117458007956
5.6623861816431936E-05
-9.924005127105419
-19.854104243765775
-29.796304817877676
-39.756415801166625
-49.73929626773061
-59.747923081468045
-69.78256353084923
-79.84036928387361
-89.91553835920648
-100
100
89.90369238015742
79.81816056501128
69.75273531329348
59.71404774989811
49.7051969562299
39.72556777956452
29.771386134518405
19.836829936569607
9.915255181033215
4.607966782913205E-05
-9.915163560644315
-19.836739994764017
-29.77129924215405
-39.72548569073356
-49.70512192712692
-59.713982513769665
-69.75268284406827
-79.81812369375848
-89.9036733316232
-100
100
89.89110083903188
79.79456553408218
69.72107838593807
59.67816298923326
49.66917923125869
39.69310862171501
29.745275144331178
19.818782956581142
9.906088173649943
2.9748467727239508E-05
-9.906028712329109
-19.81872372394274
-29.74521663739839
-39.69305187976387
-49.66912596036475
-59.67811551526292
-69.7210394250867
-79.79453774582895
-89.89108635410875
-100
100
89.87908850509842
79.7720665650835
69.69092351397599
59.64404608043103
49.635039015205535
39.662469827594265
29.72075125994898
19.801916603830836
9.897549849845023
5.970971169027451E-06
-9.8975373600586
-19.801902553736763
-29.72073502530117
-39.66245137367553
-49.63501908566238
-59.64402621565311
-69.69090577966756
-79.772053172745
-89.87908128780296
-100
100
89.86909311617916
79.75335208334286
69.66586168030389
59.61573515389211
49.606779613447564
39.63719723889357
29.700608173031227
19.788120500202936
9.890583478254637
-2.6078773540170496E-05
-9.890634406331682
-19.78816786876083
-29.700649896914246
-39.637231807164305
-49.6068063218621
-59.615754189219224
-69.66587404624073
-79.75335917184323
-89.8690962622237
-100
100
89.86244963453196
79.74091629696913
69.6492169568587
59.59695233091924
49.58806273294938
39.620499148074046
29.68733719103783
19.779055121602077
9.886008168957101
-6.5556634510196E-05
-9.886137386754102
-19.779178598426135
-29.687451203789497
-39.620600284857154
-49.58814831330084
-59.59702073112608
-69.64926761258354
-79.74094949978422
-89.86246600037549
-100
100
89.86011258985965
79.73654160698705
69.64336220321283
59.5903467764948
49.581483098429445
39.61463157553008
29.682674498907428
19.77586516857217
9.884385175520919
-0.00010970858460219979
-9.884601978172006
-19.776074044848478
-29.682869866266046
-39.6148079140349
-49.58163543468674
-59.59047128014519
-69.6434564905155
-79.73660459325708
-89.86014404993868
-100
100
89.86243002606055
79.74087807043728
69.64916204025135
59.59688347766687
49.58798322504273
39.62041246345154
29.68724654333963
19.77896320824354
9.885917062072382
-0.00015426843089044168
-9.88622231413448
-19.779258322272593
-29.68752417468596
-39.62066491905529
-49.588203244660264
-59.597064986125446
-69.64930073615443
-79.74097143044074
-89.86247689477486
-100
100
89.86905622281812
79.75328014382387
69.66575830406057
59.61560543073597
49.606629663831484
39.63703346471194
29.700436601622695
19.787946199809248
9.890410436987418
-0.00019471387210615244
-9.890795894220787
-19.788319432679263
-29.70078858881163
-39.63735469087991
-49.60691082796886
-59.61583852578712
-69.66593728086286
-79.75340112582748
-89.8691171307374
-100
100
89.87903828267243
79.77196860863496
69.69078264582794
59.643869099663604
49.634834014967474
39.66224535705487
29.72051536893763
19.801676238744488
9.897310639826445
-0.00022751326395173914
-9.89776106415647
-19.802112497055646
-29.720927121358834
-39.66262164001489
-49.635164105134635
-59.64414350836019
-69.69099399207597
-79.77211186393897
-89.87911054564474
-100
100
89.8910418214076
79.79445036005454
69.7209125813649
59.67795428490675
49.66893683642819
39.6928422518356
29.744994108809205
19.818495465282524
9.905801131131586
-0.00025101441469999416
-9.906297989292739
-19.818976503091104
-29.7454479788529
-39.6932571150476
-49.66930108687954
-59.67825758477132
-69.72114664792561
-79.79460933347042
-89.89112212929044
-100
100
89.90362867556719
79.8180361464322
69.75255592887189
59.713821414801785
49.70493319517387
39.725276723243574
29.771077625861185
19.836512919531128
9.914937468473129
-0.0002655088364010558
-9.915462853743133
-19.83702117861131
-29.771556770123233
-39.72571445612892
-49.705317583815436
-59.71414174701219
-69.75280347135941
-79.8182045130109
-89.90371382179859
-100
100
89.91549464084484
79.84028359129074
69.78243931852155
59.747765385675564
49.739111410668485
39.756210910192095
29.796087241915625
19.853881015982104
9.923782636262828
-0.0002727105818786536
-9.924322088288124
-19.854402422646892
-29.796578254047112
-39.75665911304565
-49.739504872676854
-59.74809338862656
-69.78269299326793
-79.84045629751527
-89.91558204971982
-100
100
89.92561028776721
79.8592604565408
69.80796027348852
59.77681456668451
49.7684535644535
39.78288057003535
29.817755759203674
19.869002369311403
9.931513129670515
-0.0002749903677503594
-9.932056923831123
-19.86952754738856
-29.818249818751923
-39.78333115408501
-49.7688489265802
-59.77714415763226
-69.80821528401114
-79.85943417637134
-89.9256982541485
-100
100
89.93325821825523
79.87361563108685
69.82728664606752
59.7988529807111
49.790774782300026
39.80324135687881
29.83436653516256
19.88064055215565
9.937481248415237
-0.0002746995567970627
-9.938024339338943
-19.881164721782696
-29.834859245276203
-39.80369037508245
-49.791168580362196
-59.79918122455812
-69.82754065702827
-79.87378872558031
-89.93334589352399
-100
100
89.93799762571975
79.88251520645694
69.8392779676944
59.81254562126718
49.804670736062825
39.81594959159147
29.84476458248783
19.887946369094134
9.941235729346618
-0.000273726913846441
-9.941776818230693
-19.888468401965866
-29.84525503118773
-39.816396329618605
-49.8050623999991
-59.81287204027986
-69.83953057682866
-79.88268737013085
-89.93808484181741
-100
100
89.93960048386732
79.88552570986964
69.84333612747831
59.817182911797765
49.809381828341536
39.82026383429967
29.84829992135993
19.890433951074375
9.942515502899811
-0.0002732672932212459
-9.943055656630397
-19.890955012692533
-29.848789371489303
-39.82070958695888
-49.80977258001166
-59.817508551760504
-69.84358813441656
-79.8856974696637
-89.93968749891492
-100
100
89.93806134923088
79.88264014759756
69.83945932441519
59.812776684535734
49.80494339921365
39.81625489887074
29.84509323369096
19.888289117377173
9.941583649722556
7.091924150140483E-05
-9.941443326892731
-19.888153319399418
-29.84496492341817
-39.81613700704793
-49.8048388538053
-59.812688397955924
-69.83939008697297
-79.88259241755036
-89.93803698262613
-100
100
89.93632434996692
79.87938001140056
69.83507062867963
59.807772696979725
49.799875771581654
39.811632793522215
29.841322652593835
19.88564729793782
9.940228697420805
7.033668728329001E-05
-9.940089512450028
-19.885512555782253
-29.841195262438536
-39.81151564284183
-49.799771766932324
-59.80768475895965
-69.83500158352786
-79.87933236810369
-89.93630001241971
-100
100
89.93117371977107
79.86971510460319
69.82206628060624
59.79295771767638
49.78489187837573
39.79799005294979
29.830215842376003
19.87788074119228
9.936251098968738
6.848349112481555E-05
-9.936115533387222
-19.877749356931357
-29.830091384618466
-39.79787527919049
-49.78478963329022
-59.792870947973014
-69.82199791600463
-79.86966779861828
-89.93114951087466
-100
100
89.9228166139586
79.85403972960194
69.80099319597919
59.76898851686404
49.76070918199974
39.776045737131135
29.812421051002143
19.865485683754734
9.929921181577276
6.498363490464731E-05
-9.92979245061432
-19.86536064906497
-29.812302166165807
-39.77593554578415
-49.76061043304781
-59.768904196214095
-69.80092638865338
-79.85399329741537
-89.92279278603591
-100
100
89.91167768558832
79.83315683066742
69.77295101756188
59.73715966534248
49.72870532407557
39.74714059498521
29.789113362718826
19.84934141127695
9.921710964713652
5.9035118285089005E-05
-9.921593864334907
-19.84922722193305
-29.789004105574485
-39.74703850167831
-49.72861300206003
-59.737080137223074
-69.772887524186
-79.83311244649562
-89.91165482744876
-100
100
89.89848981626878
79.80844484685409
69.73980709310099
59.699629495391626
49.69111751022946
39.713382875064305
29.762079988135916
19.830746947495225
9.912304157905204
4.923950579865943E-05
-9.912206244870934
-19.830650805240086
-29.76198699523748
-39.71329482996202
-49.691036795014824
-59.699559069879015
-69.73975027559635
-79.80840482314251
-89.89846910896365
-100
100
89.88436009057787
79.78197914475533
69.70435145176396
59.659577072356186
49.65116762563902
39.67771932951732
29.73373489788378
19.811401724760927
9.902574835488409
3.363497013209038E-05
-9.902507619650692
-19.811334723645658
-29.73366866057938
-39.6776549758572
-49.65110706457586
-59.659523008657736
-69.70430701247776
-79.78194742691156
-89.88434355083945
-100
100
89.8707522724332
79.75649898064768
69.67024891130019
59.621135448666465
49.61297147147408
39.64381767637507
29.706989461773375
19.793289654429937
9.893518601543478
1.0107569183126497E-05
-9.893497775094902
-19.79326722395632
-29.706964760869226
-39.64379081508662
-49.61294350444849
-59.62110828912067
-69.67022516051577
-79.75648127995676
-89.87074281219301
-100
100
89.85933663741716
79.73512790210881
69.641666378928
59.58897182383278
49.58111436168978
39.61568178910769
29.68493409048189
19.778455360063486
9.886136571890079
-2.258750764266848E-05
-9.886180533255073
-19.778495623159046
-29.684968627791715
-39.6157091476973
-49.58113403157709
-59.58898444625481
-69.64167334851118
-79.73513111056974
-89.85933774405083
-100
100
89.85170388142122
79.7208399042417
69.62256585539676
59.56750229262707
49.55989704129061
39.59700675906381
29.670361873396196
19.768699008848177
9.881292945444727
-6.389763096681378E-05
-9.881418801405914
-19.768819175127536
-29.670472466638152
-39.597104329034345
-49.55997894763966
-59.56756701915979
-69.62261324695267
-79.72087060371979
-89.85171889692334
-100
100
89.84901064414355
79.71579818846604
69.61582584667501
59.55992892967069
49.552416811639986
39.590429989727845
29.665234334513325
19.76526504869302
9.879575167839329
-0.0001107012454853451
-9.879794092469792
-19.765476178219412
-29.665432034772586
-39.59060834329547
-49.552570533302955
-59.56005405885351
-69.61592009191996
-79.71586082457273
-89.84904180511077
-100
100
89.85168245633817
79.7207981136541
69.62250584350599
59.56742713081141
49.55981056511402
39.596912920651555
29.670264384573354
19.76860075980365
9.881195986324459
-0.00015812589951968992
-9.881509101535961
-19.768904141516188
-29.670550380859517
-39.597173351942544
-49.560037394879224
-59.56761384435147
-69.62264800868329
-79.72089345541673
-89.85173018333214
-100
100
89.85929658331207
79.73504979547276
69.64155416535002
59.58883125938889
49.58095235411084
39.615505739995164
29.684750693348526
19.778270089760465
9.885953404453954
-0.0002008023694253236
-9.886351277180545
-19.778656170200726
-29.685115762836844
-39.61583943868121
-49.58124454080821
-59.58907312207686
-69.64173940895671
-79.73517464666136
-89.85935930251196
-100
100
89.87069828788289
79.75639369297691
69.67009760805794
59.62094565827276
49.612752331918564
39.64357872089807
29.70673962347954
19.793036281498257
9.89326731018619
-0.00023475670034767138
-9.893732429883421
-19.79348767441439
-29.707166624357704
-39.643969646516425
-49.613095403934516
-59.62123063199217
-69.67031667485415
-79.75654186862795
-89.87077290669266
-100
100
89.88429740675149
79.78185685732711
69.70417555561214
59.659356057113094
49.65091162090213
39.67743904242497
29.733440358187632
19.811101541317246
9.902275955883697
-0.00025829856140208163
-9.902787538729747
-19.811597597264637
-29.733909279552417
-39.67786826725692
-49.65128870606756
-59.65966988688446
-69.7044174587941
-79.78202091099408
-89.88438018553968
-100
100
89.8984229983545
79.80831440734777
69.7396192082617
59.69939281218873
49.69084233147631
39.71308007086167
29.761759995855904
19.830419022960456
9.911976174840449
-0.00027204139280972983
-9.912514714300048
-19.830940578389956
-29.762252329362255
-39.713530354032294
-49.69123793033738
-59.6997224291887
-69.73987374274417
-79.80848737372482
-89.8985104069844
-100
100
89.91160995116861
79.83302446986721
69.7727599996228
59.73691830617248
49.72842350766152
39.746828861232785
29.788782025344354
19.848999970803483
9.92136788932938
-0.0002781278186454461
-9.921918206000077
-19.849532256485908
-29.789283728192416
-39.74728716679969
-49.728826004281785
-59.73725383147469
-69.77301939942073
-79.83320098575741
-89.91169925125509
-100
100
89.92274972307672
79.85390886059952
69.80080392778648
59.768748607573755
49.76042788720288
39.775733033137584
29.81208692983556
19.86513964611359
9.929572004477588
-0.0002792817202078579
-9.930124375330065
-19.86567333803361
-29.812589275676643
-39.77619140143551
-49.760830198199116
-59.769084009692214
-69.80106339581096
-79.85408557408033
-89.92283918642268
-100
100
89.93110822949745
79.86958682949894
69.82188040021481
59.792721445491665
49.784613868588345
39.79767975097935
29.829882890423793
19.877534538996052
9.935900553903407
-0.0002780805038941625
-9.936450381817748
-19.878065346777998
-29.830382006715713
-39.79813474865491
-49.78501299514645
-59.7930541559295
-69.8221378571033
-79.86976225414263
-89.93119707635395
-100
100
89.93625999914771
79.87925386503596
69.83488758201379
59.8075395833395
49.79960083324306
39.811325109338505
29.840991614594113
19.885302205168554
9.939878493655963
-0.000276529293249117
-9.940425154812038
-19.885829698891925
-29.841487299784742
-39.811776711211586
-49.79999682212074
-59.80786963203115
-69.83514300143331
-79.87942793760232
-89.93634817853298
-100
100
89.93799742542159
79.8825148011503
69.83927734888722
59.81254477854885
49.80466965980206
39.815948276160725
29.844763029530473
19.88794459033788
9.941233748642746
-0.0002758725069444967
-9.941779078361911
-19.8884707138472
-29.845257321379442
-39.816398516809805
-49.80506439877616
-59.81287376590117
-69.8395319508641
-79.88268832651997
-89.93808533262919
-100
100
89.93332380213069
79.87374412569383
69.82747294148311
59.79908996943746
49.791053932022415
39.80355332050217
29.83470169536531
19.88098943144397
9.937834765857938
7.490822692993171E-05
-9.937686582411512
-19.880846093273984
-29.834566295571022
-39.80342886194579
-49.79094341433711
-59.79899643831022
-69.82739940571052
-79.87369331396914
-89.9332978199248
-100
100
89.93117472456314
79.86971707045731
69.82206913296956
59.79296136951966
49.784896242452476
39.79799503887592
29.830221338927824
19.877886595973578
9.936257112432745
7.44283913579058E-05
-9.936109871826934
-19.877744139808392
-29.830086700059333
-39.79787115518803
-49.78478607404965
-59.792867971627906
-69.82199557397324
-79.86966616877052
-89.93114867154821
-100
100
89.92475533478544
79.85769026849898
69.80593903300199
59.77468818592932
49.76657197818671
39.78150165102529
29.816973692664035
19.868745385844406
9.931622196224545
7.296370209253222E-05
-9.93147782646448
-19.868605602835174
-29.816841340264595
-39.78137947952192
-49.76646284029474
-59.77459517416263
-69.80586540251257
-79.85763910334424
-89.92472907593371
-100
100
89.91419201373748
79.83790508823206
69.77942708559812
59.74471499998678
49.7366258292461
39.754697244710066
29.79559579357346
19.854102517939932
9.92424026595687
7.036080447622717E-05
-9.92410097907021
-19.853967409052455
-29.79546739331737
-39.754578006908915
-49.73651846722393
-59.7446227124183
-69.77935344044678
-79.83785359012683
-89.91416547959172
-100
100
89.89983323355202
79.81101655195698
69.74343295589009
59.70412848758647
49.696280611316254
39.718870110928215
29.767317820941674
19.834948347277365
9.914669233555108
6.606996617844474E-05
-9.914538269099799
-19.834820818890147
-29.76719575419994
-39.71875563656141
-49.6961763655152
-59.70403784954786
-69.74335992407744
-79.81096511386559
-89.89980661610673
-100
100
89.88243013705582
79.77842746112607
69.69984579878404
59.655118407144066
49.64784764002572
39.67627598462574
29.734139641147056
19.812802408647944
9.903734969770667
5.8721709423059654E-05
-9.903618282087931
-19.812687830330617
-29.734028632767927
-39.67617028484189
-49.64774984352216
-59.655032234541125
-69.69977562407081
-79.77837768965026
-89.88240427936479
-100
100
89.86331270938568
79.7426191859548
69.65198022789943
59.601439499550274
49.59512230038331
39.63039186490393
29.698931372775952
19.789704187492532
9.892495000996812
4.569436949469763E-05
-9.892403615396685
-19.78961313965931
-29.698841046172657
-39.63030364498369
-49.59503882785172
-59.60136449419128
-69.6519183695369
-79.7425749339304
-89.86328961843246
-100
100
89.84445452985969
79.70728010785018
69.60475254508609
59.548593216861875
49.54350436095739
39.585932087692385
29.66532921684475
19.768060030723845
9.882127177473809
2.3555440694267293E-05
-9.882079484673609
-19.768010197078553
-29.6652768424148
-39.585877602914
-49.543449669436974
-59.548542022302584
-69.60470889412645
-79.70724827037695
-89.84443771851616
-100
100
89.82830634706663
79.67700245156195
69.56428825962341
59.50338732990016
49.49955620682972
39.548407230456334
29.637354032704366
19.75033922423503
9.873764029276892
-1.0934047323496454E-05
-9.873784240058477
-19.750355504967025
-29.63736382989066
-39.54840956229444
-49.499551759226705
-59.503377724836334
-69.56427692260195
-79.676992487517
-89.82830061016024
-100
100
89.81734674520695
79.65644375846334
69.5368063326849
59.4727197821455
49.469832004883585
39.52319261261468
29.618738369773762
19.738698803067695
9.868323978851809
-5.7748441549904106E-05
-9.86843784981525
-19.738806622264825
-29.61883649086289
-39.52327715886276
-49.469900279948305
-59.47277145254735
-69.53684198319408
-79.65646571793607
-89.81735702465859
-100
100
89.81345034017365
79.64913098501394
69.52702979261038
59.461809088853045
49.459272958709406
39.51425436026422
29.612167103755265
19.734601287826315
9.866403683327807
-0.00011341715445403744
-9.866628239377572
-19.734819128176657
-29.612371614542194
-39.51443877338408
-49.45943066126278
-59.46193547232425
-69.5271232549906
-79.6491918713582
-89.81348021360122
-100
100
89.81731923035223
79.6563899946316
69.53672889892358
59.47262312756223
49.46972140474152
39.5230744862188
29.618617730451874
19.738579510828046
9.868207923708816
-0.00017011811755082706
-9.868545979745885
-19.738909385669125
-29.61893154837289
-39.52336126976414
-49.469970931206355
-59.472826756371255
-69.53688205070442
-79.6564913223694
-89.81736945294374
-100
100
89.8282558474055
79.67690376846262
69.56414645807966