# vtk DataFile Version 4.1
Header:
ASCII

DATASET UNSTRUCTURED_GRID
POINTS 1 double
0 0 0


POINT_DATA 1
SCALARS conforming_element_centroids double 1
LOOKUP_TABLE default
0

