# vtk DataFile Version 4.1
Header:
ASCII

DATASET UNSTRUCTURED_GRID
POINTS 2 double
-0.2 0 0
0.2 0 0


POINT_DATA 2
VECTORS tangent_vectors double
-1 0 0.0
1 0 0.0


VECTORS normal_vectors double
-0 1 0.0
-0 1 0.0


