# vtk DataFile Version 4.1
Header:
ASCII

DATASET UNSTRUCTURED_GRID
POINTS 7 double
-0.38319512300735076 0.07588190451025206 0.0
-0.29659258262890686 0.025881904510252074 0.0
-0.2 0 0.0
0 0 0.0
0.2 0 0.0
0.29659258262890686 0.025881904510252074 0.0
0.38319512300735076 0.07588190451025206 0.0


POINT_DATA 7
VECTORS normals double
0.4999999999999997 0.8660254037844386 0.0
0.3826834323650896 0.9238795325112868 0.0
0.0869337923250398 0.9962140913237407 0.0
0 1 0.0
-0.0869337923250398 0.9962140913237407 0.0
-0.3826834323650896 0.9238795325112868 0.0
-0.4999999999999997 0.8660254037844386 0.0

