# vtk DataFile Version 4.1
Header:
ASCII

DATASET UNSTRUCTURED_GRID
POINTS 2 double
-0.38319512300735076 0.07588190451025206 0
0.38319512300735076 0.07588190451025206 0


POINT_DATA 2
VECTORS tangent_vectors double
-0.8660254037844388 0.4999999999999998 0.0
0.8660254037844388 0.4999999999999998 0.0


VECTORS normal_vectors double
-0.4999999999999998 -0.8660254037844387 0.0
-0.4999999999999998 0.8660254037844387 0.0


