# vtk DataFile Version 4.1
Header:
ASCII

DATASET UNSTRUCTURED_GRID
POINTS 2 double
-9.95585084551959 2.614072355535459 0.0
9.95585084551959 2.614072355535459 0.0


POINT_DATA 2
VECTORS normals double
0.25881904510252074 0.9659258262890683 0.0
-0.25881904510252074 0.9659258262890683 0.0

