# vtk DataFile Version 4.1
Header:
ASCII

DATASET UNSTRUCTURED_GRID
POINTS 2 double
-0.5297877056362577 20.429787705636258 0.0
0.5297877056362577 20.429787705636258 0.0


POINT_DATA 2
VECTORS normals double
1 0 0.0
-1 0 0.0

