# vtk DataFile Version 4.1
Header:
ASCII

DATASET UNSTRUCTURED_GRID
POINTS 2 double
-0.5297877056362577 0.3297877056362575 0
0.5297877056362577 0.3297877056362575 0


POINT_DATA 2
VECTORS tangent_vectors double
-0.25881904510252074 0.9659258262890682 0.0
0.25881904510252074 0.9659258262890682 0.0


VECTORS normal_vectors double
0.9659258262890683 0.25881904510252074 0.0
-0.9659258262890683 0.25881904510252074 0.0


