# vtk DataFile Version 4.1
Header:
ASCII

DATASET UNSTRUCTURED_GRID
POINTS 4 double
-0.24829629131445344 0.012940952255126037 0.0
-0.1 0 0.0
0.1 0 0.0
0.24829629131445344 0.012940952255126037 0.0


POINT_DATA 4
VECTORS normals double
0.2588190451025207 0.9659258262890683 0.0
-0 1 0.0
-0 1 0.0
-0.2588190451025207 0.9659258262890683 0.0

