# vtk DataFile Version 4.1
Header:
ASCII

DATASET UNSTRUCTURED_GRID
POINTS 484 double
-1 -1 0
-0.9047619047619048 -1 0
-0.8095238095238095 -1 0
-0.7142857142857143 -1 0
-0.6190476190476191 -1 0
-0.5238095238095238 -1 0
-0.4285714285714286 -1 0
-0.33333333333333337 -1 0
-0.23809523809523814 -1 0
-0.1428571428571429 -1 0
-0.04761904761904767 -1 0
0.04761904761904745 -1 0
0.1428571428571428 -1 0
0.23809523809523814 -1 0
0.33333333333333326 -1 0
0.4285714285714284 -1 0
0.5238095238095237 -1 0
0.6190476190476191 -1 0
0.7142857142857142 -1 0
0.8095238095238093 -1 0
0.9047619047619047 -1 0
1 -1 0
-1 -0.9047619047619048 0
-0.9047619047619048 -0.9047619047619048 0
-0.8095238095238095 -0.9047619047619048 0
-0.7142857142857143 -0.9047619047619048 0
-0.6190476190476191 -0.9047619047619048 0
-0.5238095238095238 -0.9047619047619048 0
-0.4285714285714286 -0.9047619047619048 0
-0.33333333333333337 -0.9047619047619048 0
-0.23809523809523814 -0.9047619047619048 0
-0.1428571428571429 -0.9047619047619048 0
-0.04761904761904767 -0.9047619047619048 0
0.04761904761904745 -0.9047619047619048 0
0.1428571428571428 -0.9047619047619048 0
0.23809523809523814 -0.9047619047619048 0
0.33333333333333326 -0.9047619047619048 0
0.4285714285714284 -0.9047619047619048 0
0.5238095238095237 -0.9047619047619048 0
0.6190476190476191 -0.9047619047619048 0
0.7142857142857142 -0.9047619047619048 0
0.8095238095238093 -0.9047619047619048 0
0.9047619047619047 -0.9047619047619048 0
1 -0.9047619047619048 0
-1 -0.8095238095238095 0
-0.9047619047619048 -0.8095238095238095 0
-0.8095238095238095 -0.8095238095238095 0
-0.7142857142857143 -0.8095238095238095 0
-0.6190476190476191 -0.8095238095238095 0
-0.5238095238095238 -0.8095238095238095 0
-0.4285714285714286 -0.8095238095238095 0
-0.33333333333333337 -0.8095238095238095 0
-0.23809523809523814 -0.8095238095238095 0
-0.1428571428571429 -0.8095238095238095 0
-0.04761904761904767 -0.8095238095238095 0
0.04761904761904745 -0.8095238095238095 0
0.1428571428571428 -0.8095238095238095 0
0.23809523809523814 -0.8095238095238095 0
0.33333333333333326 -0.8095238095238095 0
0.4285714285714284 -0.8095238095238095 0
0.5238095238095237 -0.8095238095238095 0
0.6190476190476191 -0.8095238095238095 0
0.7142857142857142 -0.8095238095238095 0
0.8095238095238093 -0.8095238095238095 0
0.9047619047619047 -0.8095238095238095 0
1 -0.8095238095238095 0
-1 -0.7142857142857143 0
-0.9047619047619048 -0.7142857142857143 0
-0.8095238095238095 -0.7142857142857143 0
-0.7142857142857143 -0.7142857142857143 0
-0.6190476190476191 -0.7142857142857143 0
-0.5238095238095238 -0.7142857142857143 0
-0.4285714285714286 -0.7142857142857143 0
-0.33333333333333337 -0.7142857142857143 0
-0.23809523809523814 -0.7142857142857143 0
-0.1428571428571429 -0.7142857142857143 0
-0.04761904761904767 -0.7142857142857143 0
0.04761904761904745 -0.7142857142857143 0
0.1428571428571428 -0.7142857142857143 0
0.23809523809523814 -0.7142857142857143 0
0.33333333333333326 -0.7142857142857143 0
0.4285714285714284 -0.7142857142857143 0
0.5238095238095237 -0.7142857142857143 0
0.6190476190476191 -0.7142857142857143 0
0.7142857142857142 -0.7142857142857143 0
0.8095238095238093 -0.7142857142857143 0
0.9047619047619047 -0.7142857142857143 0
1 -0.7142857142857143 0
-1 -0.6190476190476191 0
-0.9047619047619048 -0.6190476190476191 0
-0.8095238095238095 -0.6190476190476191 0
-0.7142857142857143 -0.6190476190476191 0
-0.6190476190476191 -0.6190476190476191 0
-0.5238095238095238 -0.6190476190476191 0
-0.4285714285714286 -0.6190476190476191 0
-0.33333333333333337 -0.6190476190476191 0
-0.23809523809523814 -0.6190476190476191 0
-0.1428571428571429 -0.6190476190476191 0
-0.04761904761904767 -0.6190476190476191 0
0.04761904761904745 -0.6190476190476191 0
0.1428571428571428 -0.6190476190476191 0
0.23809523809523814 -0.6190476190476191 0
0.33333333333333326 -0.6190476190476191 0
0.4285714285714284 -0.6190476190476191 0
0.5238095238095237 -0.6190476190476191 0
0.6190476190476191 -0.6190476190476191 0
0.7142857142857142 -0.6190476190476191 0
0.8095238095238093 -0.6190476190476191 0
0.9047619047619047 -0.6190476190476191 0
1 -0.6190476190476191 0
-1 -0.5238095238095238 0
-0.9047619047619048 -0.5238095238095238 0
-0.8095238095238095 -0.5238095238095238 0
-0.7142857142857143 -0.5238095238095238 0
-0.6190476190476191 -0.5238095238095238 0
-0.5238095238095238 -0.5238095238095238 0
-0.4285714285714286 -0.5238095238095238 0
-0.33333333333333337 -0.5238095238095238 0
-0.23809523809523814 -0.5238095238095238 0
-0.1428571428571429 -0.5238095238095238 0
-0.04761904761904767 -0.5238095238095238 0
0.04761904761904745 -0.5238095238095238 0
0.1428571428571428 -0.5238095238095238 0
0.23809523809523814 -0.5238095238095238 0
0.33333333333333326 -0.5238095238095238 0
0.4285714285714284 -0.5238095238095238 0
0.5238095238095237 -0.5238095238095238 0
0.6190476190476191 -0.5238095238095238 0
0.7142857142857142 -0.5238095238095238 0
0.8095238095238093 -0.5238095238095238 0
0.9047619047619047 -0.5238095238095238 0
1 -0.5238095238095238 0
-1 -0.4285714285714286 0
-0.9047619047619048 -0.4285714285714286 0
-0.8095238095238095 -0.4285714285714286 0
-0.7142857142857143 -0.4285714285714286 0
-0.6190476190476191 -0.4285714285714286 0
-0.5238095238095238 -0.4285714285714286 0
-0.4285714285714286 -0.4285714285714286 0
-0.33333333333333337 -0.4285714285714286 0
-0.23809523809523814 -0.4285714285714286 0
-0.1428571428571429 -0.4285714285714286 0
-0.04761904761904767 -0.4285714285714286 0
0.04761904761904745 -0.4285714285714286 0
0.1428571428571428 -0.4285714285714286 0
0.23809523809523814 -0.4285714285714286 0
0.33333333333333326 -0.4285714285714286 0
0.4285714285714284 -0.4285714285714286 0
0.5238095238095237 -0.4285714285714286 0
0.6190476190476191 -0.4285714285714286 0
0.7142857142857142 -0.4285714285714286 0
0.8095238095238093 -0.4285714285714286 0
0.9047619047619047 -0.4285714285714286 0
1 -0.4285714285714286 0
-1 -0.33333333333333337 0
-0.9047619047619048 -0.33333333333333337 0
-0.8095238095238095 -0.33333333333333337 0
-0.7142857142857143 -0.33333333333333337 0
-0.6190476190476191 -0.33333333333333337 0
-0.5238095238095238 -0.33333333333333337 0
-0.4285714285714286 -0.33333333333333337 0
-0.33333333333333337 -0.33333333333333337 0
-0.23809523809523814 -0.33333333333333337 0
-0.1428571428571429 -0.33333333333333337 0
-0.04761904761904767 -0.33333333333333337 0
0.04761904761904745 -0.33333333333333337 0
0.1428571428571428 -0.33333333333333337 0
0.23809523809523814 -0.33333333333333337 0
0.33333333333333326 -0.33333333333333337 0
0.4285714285714284 -0.33333333333333337 0
0.5238095238095237 -0.33333333333333337 0
0.6190476190476191 -0.33333333333333337 0
0.7142857142857142 -0.33333333333333337 0
0.8095238095238093 -0.33333333333333337 0
0.9047619047619047 -0.33333333333333337 0
1 -0.33333333333333337 0
-1 -0.23809523809523814 0
-0.9047619047619048 -0.23809523809523814 0
-0.8095238095238095 -0.23809523809523814 0
-0.7142857142857143 -0.23809523809523814 0
-0.6190476190476191 -0.23809523809523814 0
-0.5238095238095238 -0.23809523809523814 0
-0.4285714285714286 -0.23809523809523814 0
-0.33333333333333337 -0.23809523809523814 0
-0.23809523809523814 -0.23809523809523814 0
-0.1428571428571429 -0.23809523809523814 0
-0.04761904761904767 -0.23809523809523814 0
0.04761904761904745 -0.23809523809523814 0
0.1428571428571428 -0.23809523809523814 0
0.23809523809523814 -0.23809523809523814 0
0.33333333333333326 -0.23809523809523814 0
0.4285714285714284 -0.23809523809523814 0
0.5238095238095237 -0.23809523809523814 0
0.6190476190476191 -0.23809523809523814 0
0.7142857142857142 -0.23809523809523814 0
0.8095238095238093 -0.23809523809523814 0
0.9047619047619047 -0.23809523809523814 0
1 -0.23809523809523814 0
-1 -0.1428571428571429 0
-0.9047619047619048 -0.1428571428571429 0
-0.8095238095238095 -0.1428571428571429 0
-0.7142857142857143 -0.1428571428571429 0
-0.6190476190476191 -0.1428571428571429 0
-0.5238095238095238 -0.1428571428571429 0
-0.4285714285714286 -0.1428571428571429 0
-0.33333333333333337 -0.1428571428571429 0
-0.23809523809523814 -0.1428571428571429 0
-0.1428571428571429 -0.1428571428571429 0
-0.04761904761904767 -0.1428571428571429 0
0.04761904761904745 -0.1428571428571429 0
0.1428571428571428 -0.1428571428571429 0
0.23809523809523814 -0.1428571428571429 0
0.33333333333333326 -0.1428571428571429 0
0.4285714285714284 -0.1428571428571429 0
0.5238095238095237 -0.1428571428571429 0
0.6190476190476191 -0.1428571428571429 0
0.7142857142857142 -0.1428571428571429 0
0.8095238095238093 -0.1428571428571429 0
0.9047619047619047 -0.1428571428571429 0
1 -0.1428571428571429 0
-1 -0.04761904761904767 0
-0.9047619047619048 -0.04761904761904767 0
-0.8095238095238095 -0.04761904761904767 0
-0.7142857142857143 -0.04761904761904767 0
-0.6190476190476191 -0.04761904761904767 0
-0.5238095238095238 -0.04761904761904767 0
-0.4285714285714286 -0.04761904761904767 0
-0.33333333333333337 -0.04761904761904767 0
-0.23809523809523814 -0.04761904761904767 0
-0.1428571428571429 -0.04761904761904767 0
-0.04761904761904767 -0.04761904761904767 0
0.04761904761904745 -0.04761904761904767 0
0.1428571428571428 -0.04761904761904767 0
0.23809523809523814 -0.04761904761904767 0
0.33333333333333326 -0.04761904761904767 0
0.4285714285714284 -0.04761904761904767 0
0.5238095238095237 -0.04761904761904767 0
0.6190476190476191 -0.04761904761904767 0
0.7142857142857142 -0.04761904761904767 0
0.8095238095238093 -0.04761904761904767 0
0.9047619047619047 -0.04761904761904767 0
1 -0.04761904761904767 0
-1 0.04761904761904745 0
-0.9047619047619048 0.04761904761904745 0
-0.8095238095238095 0.04761904761904745 0
-0.7142857142857143 0.04761904761904745 0
-0.6190476190476191 0.04761904761904745 0
-0.5238095238095238 0.04761904761904745 0
-0.4285714285714286 0.04761904761904745 0
-0.33333333333333337 0.04761904761904745 0
-0.23809523809523814 0.04761904761904745 0
-0.1428571428571429 0.04761904761904745 0
-0.04761904761904767 0.04761904761904745 0
[...]
POINT_DATA 484
SCALARS phi double 1
LOOKUP_TABLE default
-1.2401434992741867
-1.192524451655139
-1.146966488405608
-1.1076557381401737
-1.0753654878753434
-1.0497338980365511
-1.0257898897723567
-1.0088497300281039
-1.0007253605088324
-1
-1
-1
-1
-1.0007253605088324
-1.0088497300281036
-1.0257898897723567
-1.0497338980365511
-1.0753654878753434
-1.1076557381401737
-1.146966488405608
-1.192524451655139
-1.2401434992741867
-1.1576648893899555
-1.1100458417709067
-1.062636505706679
-1.020081100682618
-0.9849239311989448
-0.9577409621994971
-0.9331875493530621
-0.9145336965285467
-0.9055635546298907
-0.9047619047619048
-0.9047619047619048
-0.9047619047619048
-0.9047619047619048
-0.9055635546298907
-0.9145336965285467
-0.933187549353062
-0.9577409621994969
-0.9849239311989448
-1.020081100682618
-1.062636505706679
-1.1100458417709067
-1.1576648893899544
-1.0751862795057232
-1.0275672318866755
-0.9799481842676269
-0.934007633413149
-0.8954775025384799
-0.8657541483586644
-0.8410985934955361
-0.8204307258774008
-0.8104196723620879
-0.8095238095238095
-0.8095238095238095
-0.8095238095238095
-0.8095238095238095
-0.8104196723620879
-0.8204307258774008
-0.8410985934955361
-0.8657541483586644
-0.8954775025384799
-0.934007633413149
-0.9799481842676268
-1.0275672318866744
-1.075186279505722
-0.9927076696214892
-0.9450886220024417
-0.8974695743833946
-0.8498915555218571
-0.8073570179455208
-0.7742581238021122
-0.749105657658482
-0.7266236022938085
-0.7153008659285867
-0.7142857142857143
-0.7142857142857143
-0.7142857142857143
-0.7142857142857143
-0.7153008659285867
-0.7266236022938085
-0.749105657658482
-0.7742581238021122
-0.8073570179455208
-0.8498915555218571
-0.8974695743833946
-0.9450886220024421
-0.9927076696214898
-0.9102290597372567
-0.8626100121182109
-0.8149909644991618
-0.7673719168801149
-0.7210487784251325
-0.6837847824542885
-0.657112721821428
-0.6332438175192111
-0.6202186725777119
-0.6190476190476191
-0.6190476190476191
-0.6190476190476191
-0.6190476190476191
-0.6202186725777119
-0.6332438175192111
-0.6571127218214279
-0.6837847824542884
-0.7210487784251325
-0.7673719168801147
-0.8149909644991623
-0.86261001211821
-0.9102290597372577
-0.8277504498530243
-0.7801314022339784
-0.7325123546149293
-0.6848933069958824
-0.6372742593768349
-0.5948009790910833
-0.5651197859843738
-0.5405128999490557
-0.5251929782461805
-0.5238095238095238
-0.5238095238095238
-0.5238095238095238
-0.5238095238095238
-0.5251929782461805
-0.5405128999490557
-0.5651197859843738
-0.5948009790910833
-0.6372742593768349
-0.6848933069958824
-0.7325123546149299
-0.7801314022339776
-0.8277504498530253
-0.7452718399687935
-0.6976527923497463
-0.6500337447306985
-0.6024146971116512
-0.5547956494926026
-0.5080899234471443
-0.4732295930363706
-0.44847741728041296
-0.43026121897434355
-0.4285714285714286
-0.4285714285714286
-0.4285714285714286
-0.4285714285714286
-0.43026121897434355
-0.44847741728041296
-0.47322959303637047
-0.5080899234471443
-0.5547956494926026
-0.6024146971116502
-0.6500337447306977
-0.6976527923497454
-0.7452718399687931
-0.6627932300845613
-0.6151741824655138
-0.5675551348464661
-0.5199360872274188
-0.4723170396083704
-0.42469799198932273
-0.3826930922754467
-0.35648448144335887
-0.3355031419773055
-0.33333333333333337
-0.33333333333333337
-0.33333333333333337
-0.33333333333333337
-0.3355031419773055
-0.3564844814433588
-0.3826930922754466
-0.4246979919893227
-0.4723170396083704
-0.5199360872274179
-0.5675551348464655
-0.6151741824655131
-0.6627932300845607
-0.5803146202003288
-0.5326955725812829
-0.4850765249622337
-0.4374574773431879
-0.3898384297241388
-0.34221938210509045
-0.29513106850089366
-0.2644915456063048
-0.24112359811756504
-0.23809523809523814
-0.23809523809523814
-0.23809523809523814
-0.23809523809523814
-0.24112359811756504
-0.2644915456063047
-0.29513106850089355
-0.3422193821050904
-0.389838429724138
-0.43745747734318563
-0.48507652496223314
-0.5326955725812809
-0.5803146202003285
-0.49783601031609476
-0.45021696269704886
-0.4025979150779998
-0.3549788674589539
-0.30735981983990657
-0.25974077222085895
-0.21212172460181064
-0.17249860976925063
-0.1478492828215241
-0.1428571428571429
-0.1428571428571429
-0.1428571428571429
-0.1428571428571429
-0.1478492828215241
-0.1724986097692506
-0.2121217246018105
-0.2597407722208582
-0.30735981983990585
-0.35497886745895335
-0.4025979150780009
-0.4502169626970486
-0.4978360103160962
-0.41535740043186414
-0.36773835281281647
-0.32011930519376913
-0.2725002575747215
-0.22488120995567418
-0.17726216233662653
-0.12964311471757836
-0.08217221383313479
-0.05585624106528981
-0.04761904761904767
-0.04761904761904767
-0.04761904761904767
-0.04761904761904767
-0.05585624106528981
-0.08217221383313475
-0.12964311471757828
-0.1772621623366259
-0.22488120995567357
-0.27250025757472107
-0.3201193051937687
-0.3677383528128163
-0.415357400431864
-0.3328787905476317
-0.2852597429285841
-0.23764069530953646
-0.19002164769049062
-0.1424026000714435
-0.09478355245239434
-0.04716450483334496
0.00045454278570139945
0.036136694771764205
0.04761904761904745
0.04761904761904745
0.04761904761904745
0.04761904761904745
0.036136694771764205
0.00045454278570145496
-0.04716450483334609
-0.09478355245239373
-0.14240260007144137
-0.19002164769048893
-0.23764069530953646
-0.28525974292858414
-0.33287879054763175
-0.25040018066339925
-0.2027811330443534
-0.15516208542530427
-0.10754303780625843
-0.059923990187209286
-0.012304942568163451
0.03531410505088724
0.08293315266993376
0.1281296306088184
0.1428571428571428
0.1428571428571428
0.1428571428571428
0.1428571428571428
0.1281296306088184
0.08293315266993381
0.03531410505088627
-0.012304942568161371
-0.05992399018720902
-0.10754303780625658
-0.1551620854253041
-0.20278113304435177
-0.2504001806633995
-0.16792157077916528
-0.12030252316011947
-0.07268347554107031
-0.02506442792202447
0.022554619697022903
0.07017366731607051
0.11779271493511968
0.16541176255416704
0.21303081017321374
0.23809523809523814
0.23809523809523814
0.23809523809523814
0.23809523809523814
0.21303081017321374
0.1654117625541662
0.11779271493511863
0.07017366731607098
0.022554619697023326
-0.02506442792202419
-0.07268347554107173
-0.1203025231601194
-0.16792157077916708
-0.08544296089493464
-0.03782391327588703
0.009795134343160346
0.057414181962207954
0.10503322958125534
0.15265227720030294
0.2002713248193521
0.24789037243839945
0.29550942005744707
0.33333333333333326
0.33333333333333326
0.33333333333333326
0.33333333333333326
0.29550942005744585
0.24789037243839837
0.2002713248193508
0.15265227720030314
0.1050332295812555
0.05741418196220796
0.009795134343160419
-0.0378239132758873
-0.08544296089493489
-0.0029643510107019728
0.0446546966083454
0.09227374422739301
0.13989279184643882
0.18751183946548622
0.2351308870845338
0.2827499347035845
0.33036898232263184
0.3779880299416777
0.42560707756072563
0.4285714285714284
0.4285714285714284
0.4256070775607257
0.37798802994167807
0.3303689823226305
0.28274993470358295
0.2351308870845353
0.18751183946548763
0.13989279184644013
0.0922737442273926
0.04465469660834493
-0.0029643510107027096
0.07951425887352868
0.12713330649257606
0.1747523541116252
0.22237140173067105
0.2699904493497186
0.3176094969687663
0.36522854458781673
0.4128475922068628
0.4604666398259104
0.5080856874449577
0.5238095238095237
0.5238095238095237
0.508085687444958
0.4604666398259104
0.41284759220686285
0.36522854458781534
0.3176094969687677
0.26999044934972
0.22237140173067252
0.17475235411162493
0.12713330649257726
0.07951425887352963
0.16199286875776264
0.20961191637680848
0.2572309639958559
0.30485001161490344
0.35246905923395083
0.4000881068529985
0.4477071544720476
0.49532620209109496
0.5429452497101426
0.5905642973291902
0.6190476190476191
0.6190476190476191
0.5905642973291904
0.5429452497101427
0.4953262020910952
0.4477071544720477
0.400088106853
0.35246905923395233
0.3048500116149049
0.25723096399585726
0.2096119163768096
0.1619928687577619
0.2444714786419933
0.29209052626104093
0.33970957388008827
0.3873286214991359
0.4349476691181833
0.4825667167372309
0.5301857643562801
0.5778048119753274
0.625423859594375
0.6730429072134207
0.7142857142857142
0.7142857142857142
0.6730429072134225
0.6254238595943749
0.5778048119753273
0.5301857643562798
0.4825667167372321
0.4349476691181845
0.387328621499137
0.33970957388008943
0.2920905262610417
0.24447147864199406
0.326950088526226
0.3745691361452716
0.4221881837643191
0.4698072313833668
0.5174262790024157
0.5650453266214618
0.6126643742405125
0.6602834218595598
0.7079024694786057
0.7555215170976533
0.8031405647167006
0.8031405647167024
0.7555215170976548
0.7079024694786071
0.6602834218595595
0.612664374240512
0.5650453266214643
0.5174262790024167
0.4698072313833691
0.4221881837643216
0.3745691361452739
0.32695008852622626
0.4094286984104581
0.45704774602950726
0.5046667936485532
0.5522858412676008
0.5999048888866482
0.6475239365056957
0.695142984124745
0.7427620317437923
0.7903810793628399
0.8380001269818872
0.8856191746009364
0.8856191746009346
0.8380001269818871
0.7903810793628394
0.742762031743792
0.6951429841247443
0.6475239365056967
0.599904888886649
0.5522858412676015
0.5046667936485539
0.45704774602950626
0.40942869841045865
0.4919073082946921
0.539526355913738
0.5871454035327855
0.6347644511518332
0.6823834987708803
0.730002546389928
0.7776215940089772
0.8252406416280245
0.872859689247072
0.9204787368661198
0.968097784485167
0.968097784485167
0.9204787368661194
0.8728596892470718
0.8252406416280241
0.7776215940089767
0.730002546389929
0.6823834987708816
0.6347644511518338
0.5871454035327863
0.5395263559137387
0.491907308294691

SCALARS psi double 1
LOOKUP_TABLE default
-0.003772259601338193
-0.08625086948558681
-0.1540970339557659
-0.200603135196862
-0.23819601135967142
-0.2745050554699295
-0.3276217080720816
-0.377134316582733
-0.4208617372589041
-0.46398730279533396
-0.5197433740083884
-0.5197433740083884
-0.4639873027953344
-0.4208617372589041
-0.3771343165827336
-0.3276217080720816
-0.2745050554699295
-0.23819601135967142
-0.200603135196862
-0.1540970339557659
-0.08625086948558681
-0.003772259601338193
0.04384678801765519
-0.03863182186654253
-0.11925638913766556
-0.17526496605711242
-0.21728674672848117
-0.25331194149100383
-0.30476595528844275
-0.35745852437329584
-0.4033248142519766
-0.4481411842913994
-0.5056475835287183
-0.5056475835287187
-0.4481411842913994
-0.4033248142519766
-0.35745852437329584
-0.3047659552884431
-0.2533119414910047
-0.21728674672848117
-0.17526496605711242
-0.11925638913766556
-0.03863182186654253
0.04384678801768557
0.09146583563672611
0.008987225752393245
-0.07349138413172446
-0.1455815881325373
-0.19413840624677559
-0.23277766808026154
-0.28027744035266583
-0.33663466926319957
-0.3849898825868037
-0.43171382299030814
-0.491147414358705
-0.4911474143587053
-0.43171382299030814
-0.3849898825868037
-0.33663466926319957
-0.28027744035266583
-0.23277766808026154
-0.19413840624677559
-0.1455815881325373
-0.07349138413172446
0.008987225752516778
0.09146583563673946
0.13908488325579094
0.05660627337156104
-0.025872336512675575
-0.10802865027103696
-0.1678270277882205
-0.21133299135032038
-0.2554693495595611
-0.3144347379866808
-0.36573694590102585
-0.41463614032512447
-0.47620592870527195
-0.47620592870527206
-0.41463614032512447
-0.36573694590102585
-0.3144347379866808
-0.2554693495595611
-0.21133299135032038
-0.1678270277882205
-0.10802865027103696
-0.025872336512671283
0.0566062733715532
0.13908488325578616
0.18670393087483916
0.10422532099059437
0.0217467111063951
-0.06073189877786006
-0.13653608216299082
-0.18745085678455906
-0.23062723741884644
-0.2905434706813456
-0.3454125323433116
-0.39682418369666617
-0.46078019753116556
-0.46078019753116556
-0.39682418369666617
-0.3454125323433116
-0.2905434706813456
-0.2306272374188468
-0.1874508567845595
-0.13653608216299082
-0.060731898777860976
0.021746711106364468
0.10422532099060182
0.18670393087483442
0.2343229784938859
0.1518443686096457
0.06936575872542589
-0.013112851158819792
-0.09559146104304615
-0.16004378833761612
-0.2057387804859186
-0.26450295321294776
-0.32381494931924965
-0.3781742147071036
-0.4448198448132332
-0.44481984481323344
-0.3781742147071036
-0.32381494931924965
-0.26450295321294776
-0.20573878048591834
-0.16004378833761612
-0.09559146104304615
-0.013112851158813443
0.06936575872541709
0.15184436860964973
0.23432297849388234
0.28194202611292857
0.19946341622869448
0.11698480634446146
0.03450619646021698
-0.04797241342400007
-0.12684717049128982
-0.18051572407547453
-0.2362781613188224
-0.300669960763355
-0.35855549162179035
-0.42826510276051927
-0.42826510276051943
-0.35855549162179035
-0.300669960763355
-0.2362781613188224
-0.18051572407547453
-0.12684717049128982
-0.04797241342400007
0.03450619646023467
0.11698480634446526
0.19946341622869754
0.28194202611292973
0.32956107373197663
0.2470824638477434
0.16460385396351082
0.0821252440792756
-0.000353365804889318
-0.08283197568918357
-0.15186216485577703
-0.20703169671076388
-0.27558796999913926
-0.33779926653998643
-0.4110441608213004
-0.4110441608213007
-0.33779926653998654
-0.27558796999913926
-0.20703169671076393
-0.15186216485577722
-0.08283197568918374
-0.000353365804889318
0.08212524407927999
0.16460385396351285
0.247082463847745
0.32956107373197774
0.37718012135102486
0.2947015114667891
0.21222290158255952
0.12974429169832077
0.04726568181408978
-0.035212928070136075
-0.11635423323142871
-0.17638612885086022
-0.24798192093589336
-0.3156812448938991
-0.3930694672040761
-0.39306946720407626
-0.3156812448938992
-0.24798192093589336
-0.17638612885086033
-0.11635423323142884
-0.035212928070136276
0.04726568181409624
0.12974429169832805
0.21222290158256057
0.29470151146679274
0.3771801213510252
0.4247991689700744
0.34232055908584
0.2598419492016101
0.177363339317375
0.09488472943314114
0.012406119548896017
-0.07007249033532084
-0.1434475463030553
-0.2168901496469233
-0.2918920216117101
-0.37423242771158327
-0.3742324277115835
-0.2918920216117102
-0.2168901496469233
-0.1434475463030554
-0.07007249033532105
0.01240611954891056
0.09488472943314348
0.17736333931737586
0.259841949201608
0.34232055908584036
0.4247991689700727
0.47241821658912025
0.3899396067048879
0.30746099682065536
0.22498238693642308
0.14250377705219028
0.06002516716795728
-0.022453442716273326
-0.10481607949213279
-0.18217173796285782
-0.2659835637466724
-0.354395561278234
-0.3543955612782342
-0.26598356374667254
-0.18217173796285782
-0.1048160794921329
-0.022453442716273326
0.06002516716795884
0.14250377705219125
0.22498238693642345
0.30746099682065553
0.38993960670488803
0.4724182165891204
0.5200372642081679
0.4375586543239355
0.3550800444397034
0.27260143455546987
0.19012282467123723
0.10764421478700606
0.025165604902776615
-0.057313004981457964
-0.14334191631247778
-0.23726263946561268
-0.33338043997289896
-0.3333804399728992
-0.2372626394656128
-0.14334191631247778
-0.05731300498145807
0.025165604902774093
0.10764421478700645
0.1901228246712388
0.272601434555471
0.3550800444397032
0.4375586543239355
0.5200372642081679
0.5676563118272158
0.4851777019429826
0.40269909205875093
0.3202204821745181
0.23774187229028637
0.15526326240605404
0.07278465252182142
-0.009693957362410223
-0.0955115538203567
-0.2045479503417192
-0.3109482620297672
-0.3109482620297675
-0.20454795034171933
-0.0955115538203567
-0.009693957362410313
0.07278465252182176
0.1552632624060541
0.23774187229028643
0.3202204821745186
0.40269909205875076
0.48517770194298326
0.5676563118272157
0.6152753594462638
0.5327967495620309
0.4503181396777988
0.3678395297935664
0.2853609199093341
0.202882310025102
0.12040370014086844
0.037925090256633244
-0.04455351962759479
-0.1654876668873168
-0.2867666744273852
-0.2867666744273854
-0.16548766688731703
-0.04455351962759479
0.03792509025663714
0.12040370014086939
0.2028823100251018
0.2853609199093341
0.36783952979356627
0.45031813967779843
0.5327967495620309
0.6152753594462632
0.6628944070653108
0.5804157971810784
0.49793718729684616
0.41545857741261394
0.33297996752838166
0.2505013576441495
0.16802274775991552
0.08554413787568138
0.003065527991338346
-0.11372102617641418
-0.2603486690285761
-0.2603486690285764
-0.11372102617641454
0.003065527991456049
0.08554413787568467
0.16802274775991696
0.25050135764414927
0.3329799675283816
0.41545857741261377
0.497937187296846
0.5804157971810784
0.6628944070653108
0.7105134546843582
0.6280348448001258
0.5455562349158936
0.46307762503166183
0.38059901514742994
0.2981204052631981
0.21564179537896258
0.13316318549472886
0.05068457561050251
-0.03179403427373182
-0.23092798307645654
-0.2309279830764569
-0.03179403427373226
0.05068457561049977
0.13316318549473213
0.21564179537896447
0.29812040526319683
0.3805990151474292
0.4630776250316614
0.5455562349158936
0.628034844800126
0.7105134546843582
0.7581325023034061
0.6756538924191738
0.5931752825349412
0.5106966726507096
0.4282180627664777
0.34573945288224583
0.2632608429980101
0.18078223311378014
0.09830362322954753
0.01582501334532125
-0.19716500011556123
-0.19716500011556193
0.015825013345317742
0.09830362322954753
0.18078223311378008
0.26326084299801206
0.3457394528822444
0.4282180627664769
0.5106966726507091
0.5931752825349412
0.6756538924191736
0.758132502303406
0.8057515499224535
0.7232729400382216
0.6407943301539895
0.5583157202697574
0.47583711038552556
0.3933585005012936
0.3108798906170598
0.22840128073282787
0.14592267084859603
0.06344406096436413
-0.15627009046320534
-0.15627009046320586
0.06344406096436282
0.14592267084859567
0.22840128073282737
0.31087989061705956
0.3933585005012921
0.47583711038552445
0.5583157202697566
0.6407943301539888
0.7232729400382213
0.8057515499224536
0.8533705975415014
0.770891987657269
0.688413377773037
0.6059347678888048
0.523456158004573
0.4409775481203411
0.35849893823610685
0.27602032835187507
0.19354171846764268
0.11106310858342093
-0.09983308607965345
-0.09983308607965401
0.11106310858341094
0.19354171846764295
0.27602032835187534
0.35849893823610723
0.4409775481203396
0.523456158004572
0.6059347678888042
0.6884133777730362
0.7708919876572687
0.8533705975415011
0.9009896451605488
0.8185110352763174
0.7360324253920855
0.6535538155078534
0.5710752056236205
0.48859659573939024
0.40611798585515413
0.3236393759709218
0.24116076608669434
0.15868215620246476
0.0762035463182433
0.07620354631822582
0.15868215620245743
0.24116076608669018
0.32363937597092246
0.4061179858551548
0.48859659573938724
0.5710752056236196
0.6535538155078515
0.7360324253920839
0.8185110352763164
0.9009896451605486
0.9486086927795966
0.8661300828953634
0.783651473011132
0.7011728631269
0.618694253242668
0.5362156433584359
0.4537370334742015
0.37125842358996947
0.28877981370573674
0.20630120382150502
0.12382259393726022
0.12382259393727367
0.20630120382150557
0.2887798137057381
0.3712584235899702
0.4537370334742026
0.5362156433584346
0.6186942532426672
0.7011728631268993
0.7836514730111315
0.8661300828953639
0.9486086927795963
0.9962277403986433
0.913749130514412
0.8312705206301797
0.7487919107459475
0.666313300861716
0.5838346909774838
0.5013560810932494
0.4188774712090174
0.3363988613247852
0.2539202514405519
0.17144164155632097
0.17144164155632097
0.25392025144055347
0.33639886132478586
0.4188774712090181
0.5013560810932502
0.5838346909774825
0.6663133008617148
0.7487919107459471
0.8312705206301791
0.9137491305144116
0.9962277403986437

