# vtk DataFile Version 4.1
Header:
ASCII

DATASET UNSTRUCTURED_GRID
POINTS 484 double
-1 -1 0
-0.9047619047619048 -1 0
-0.8095238095238095 -1 0
-0.7142857142857143 -1 0
-0.6190476190476191 -1 0
-0.5238095238095238 -1 0
-0.4285714285714286 -1 0
-0.33333333333333337 -1 0
-0.23809523809523814 -1 0
-0.1428571428571429 -1 0
-0.04761904761904767 -1 0
0.04761904761904745 -1 0
0.1428571428571428 -1 0
0.23809523809523814 -1 0
0.33333333333333326 -1 0
0.4285714285714284 -1 0
0.5238095238095237 -1 0
0.6190476190476191 -1 0
0.7142857142857142 -1 0
0.8095238095238093 -1 0
0.9047619047619047 -1 0
1 -1 0
-1 -0.9047619047619048 0
-0.9047619047619048 -0.9047619047619048 0
-0.8095238095238095 -0.9047619047619048 0
-0.7142857142857143 -0.9047619047619048 0
-0.6190476190476191 -0.9047619047619048 0
-0.5238095238095238 -0.9047619047619048 0
-0.4285714285714286 -0.9047619047619048 0
-0.33333333333333337 -0.9047619047619048 0
-0.23809523809523814 -0.9047619047619048 0
-0.1428571428571429 -0.9047619047619048 0
-0.04761904761904767 -0.9047619047619048 0
0.04761904761904745 -0.9047619047619048 0
0.1428571428571428 -0.9047619047619048 0
0.23809523809523814 -0.9047619047619048 0
0.33333333333333326 -0.9047619047619048 0
0.4285714285714284 -0.9047619047619048 0
0.5238095238095237 -0.9047619047619048 0
0.6190476190476191 -0.9047619047619048 0
0.7142857142857142 -0.9047619047619048 0
0.8095238095238093 -0.9047619047619048 0
0.9047619047619047 -0.9047619047619048 0
1 -0.9047619047619048 0
-1 -0.8095238095238095 0
-0.9047619047619048 -0.8095238095238095 0
-0.8095238095238095 -0.8095238095238095 0
-0.7142857142857143 -0.8095238095238095 0
-0.6190476190476191 -0.8095238095238095 0
-0.5238095238095238 -0.8095238095238095 0
-0.4285714285714286 -0.8095238095238095 0
-0.33333333333333337 -0.8095238095238095 0
-0.23809523809523814 -0.8095238095238095 0
-0.1428571428571429 -0.8095238095238095 0
-0.04761904761904767 -0.8095238095238095 0
0.04761904761904745 -0.8095238095238095 0
0.1428571428571428 -0.8095238095238095 0
0.23809523809523814 -0.8095238095238095 0
0.33333333333333326 -0.8095238095238095 0
0.4285714285714284 -0.8095238095238095 0
0.5238095238095237 -0.8095238095238095 0
0.6190476190476191 -0.8095238095238095 0
0.7142857142857142 -0.8095238095238095 0
0.8095238095238093 -0.8095238095238095 0
0.9047619047619047 -0.8095238095238095 0
1 -0.8095238095238095 0
-1 -0.7142857142857143 0
-0.9047619047619048 -0.7142857142857143 0
-0.8095238095238095 -0.7142857142857143 0
-0.7142857142857143 -0.7142857142857143 0
-0.6190476190476191 -0.7142857142857143 0
-0.5238095238095238 -0.7142857142857143 0
-0.4285714285714286 -0.7142857142857143 0
-0.33333333333333337 -0.7142857142857143 0
-0.23809523809523814 -0.7142857142857143 0
-0.1428571428571429 -0.7142857142857143 0
-0.04761904761904767 -0.7142857142857143 0
0.04761904761904745 -0.7142857142857143 0
0.1428571428571428 -0.7142857142857143 0
0.23809523809523814 -0.7142857142857143 0
0.33333333333333326 -0.7142857142857143 0
0.4285714285714284 -0.7142857142857143 0
0.5238095238095237 -0.7142857142857143 0
0.6190476190476191 -0.7142857142857143 0
0.7142857142857142 -0.7142857142857143 0
0.8095238095238093 -0.7142857142857143 0
0.9047619047619047 -0.7142857142857143 0
1 -0.7142857142857143 0
-1 -0.6190476190476191 0
-0.9047619047619048 -0.6190476190476191 0
-0.8095238095238095 -0.6190476190476191 0
-0.7142857142857143 -0.6190476190476191 0
-0.6190476190476191 -0.6190476190476191 0
-0.5238095238095238 -0.6190476190476191 0
-0.4285714285714286 -0.6190476190476191 0
-0.33333333333333337 -0.6190476190476191 0
-0.23809523809523814 -0.6190476190476191 0
-0.1428571428571429 -0.6190476190476191 0
-0.04761904761904767 -0.6190476190476191 0
0.04761904761904745 -0.6190476190476191 0
0.1428571428571428 -0.6190476190476191 0
0.23809523809523814 -0.6190476190476191 0
0.33333333333333326 -0.6190476190476191 0
0.4285714285714284 -0.6190476190476191 0
0.5238095238095237 -0.6190476190476191 0
0.6190476190476191 -0.6190476190476191 0
0.7142857142857142 -0.6190476190476191 0
0.8095238095238093 -0.6190476190476191 0
0.9047619047619047 -0.6190476190476191 0
1 -0.6190476190476191 0
-1 -0.5238095238095238 0
-0.9047619047619048 -0.5238095238095238 0
-0.8095238095238095 -0.5238095238095238 0
-0.7142857142857143 -0.5238095238095238 0
-0.6190476190476191 -0.5238095238095238 0
-0.5238095238095238 -0.5238095238095238 0
-0.4285714285714286 -0.5238095238095238 0
-0.33333333333333337 -0.5238095238095238 0
-0.23809523809523814 -0.5238095238095238 0
-0.1428571428571429 -0.5238095238095238 0
-0.04761904761904767 -0.5238095238095238 0
0.04761904761904745 -0.5238095238095238 0
0.1428571428571428 -0.5238095238095238 0
0.23809523809523814 -0.5238095238095238 0
0.33333333333333326 -0.5238095238095238 0
0.4285714285714284 -0.5238095238095238 0
0.5238095238095237 -0.5238095238095238 0
0.6190476190476191 -0.5238095238095238 0
0.7142857142857142 -0.5238095238095238 0
0.8095238095238093 -0.5238095238095238 0
0.9047619047619047 -0.5238095238095238 0
1 -0.5238095238095238 0
-1 -0.4285714285714286 0
-0.9047619047619048 -0.4285714285714286 0
-0.8095238095238095 -0.4285714285714286 0
-0.7142857142857143 -0.4285714285714286 0
-0.6190476190476191 -0.4285714285714286 0
-0.5238095238095238 -0.4285714285714286 0
-0.4285714285714286 -0.4285714285714286 0
-0.33333333333333337 -0.4285714285714286 0
-0.23809523809523814 -0.4285714285714286 0
-0.1428571428571429 -0.4285714285714286 0
-0.04761904761904767 -0.4285714285714286 0
0.04761904761904745 -0.4285714285714286 0
0.1428571428571428 -0.4285714285714286 0
0.23809523809523814 -0.4285714285714286 0
0.33333333333333326 -0.4285714285714286 0
0.4285714285714284 -0.4285714285714286 0
0.5238095238095237 -0.4285714285714286 0
0.6190476190476191 -0.4285714285714286 0
0.7142857142857142 -0.4285714285714286 0
0.8095238095238093 -0.4285714285714286 0
0.9047619047619047 -0.4285714285714286 0
1 -0.4285714285714286 0
-1 -0.33333333333333337 0
-0.9047619047619048 -0.33333333333333337 0
-0.8095238095238095 -0.33333333333333337 0
-0.7142857142857143 -0.33333333333333337 0
-0.6190476190476191 -0.33333333333333337 0
-0.5238095238095238 -0.33333333333333337 0
-0.4285714285714286 -0.33333333333333337 0
-0.33333333333333337 -0.33333333333333337 0
-0.23809523809523814 -0.33333333333333337 0
-0.1428571428571429 -0.33333333333333337 0
-0.04761904761904767 -0.33333333333333337 0
0.04761904761904745 -0.33333333333333337 0
0.1428571428571428 -0.33333333333333337 0
0.23809523809523814 -0.33333333333333337 0
0.33333333333333326 -0.33333333333333337 0
0.4285714285714284 -0.33333333333333337 0
0.5238095238095237 -0.33333333333333337 0
0.6190476190476191 -0.33333333333333337 0
0.7142857142857142 -0.33333333333333337 0
0.8095238095238093 -0.33333333333333337 0
0.9047619047619047 -0.33333333333333337 0
1 -0.33333333333333337 0
-1 -0.23809523809523814 0
-0.9047619047619048 -0.23809523809523814 0
-0.8095238095238095 -0.23809523809523814 0
-0.7142857142857143 -0.23809523809523814 0
-0.6190476190476191 -0.23809523809523814 0
-0.5238095238095238 -0.23809523809523814 0
-0.4285714285714286 -0.23809523809523814 0
-0.33333333333333337 -0.23809523809523814 0
-0.23809523809523814 -0.23809523809523814 0
-0.1428571428571429 -0.23809523809523814 0
-0.04761904761904767 -0.23809523809523814 0
0.04761904761904745 -0.23809523809523814 0
0.1428571428571428 -0.23809523809523814 0
0.23809523809523814 -0.23809523809523814 0
0.33333333333333326 -0.23809523809523814 0
0.4285714285714284 -0.23809523809523814 0
0.5238095238095237 -0.23809523809523814 0
0.6190476190476191 -0.23809523809523814 0
0.7142857142857142 -0.23809523809523814 0
0.8095238095238093 -0.23809523809523814 0
0.9047619047619047 -0.23809523809523814 0
1 -0.23809523809523814 0
-1 -0.1428571428571429 0
-0.9047619047619048 -0.1428571428571429 0
-0.8095238095238095 -0.1428571428571429 0
-0.7142857142857143 -0.1428571428571429 0
-0.6190476190476191 -0.1428571428571429 0
-0.5238095238095238 -0.1428571428571429 0
-0.4285714285714286 -0.1428571428571429 0
-0.33333333333333337 -0.1428571428571429 0
-0.23809523809523814 -0.1428571428571429 0
-0.1428571428571429 -0.1428571428571429 0
-0.04761904761904767 -0.1428571428571429 0
0.04761904761904745 -0.1428571428571429 0
0.1428571428571428 -0.1428571428571429 0
0.23809523809523814 -0.1428571428571429 0
0.33333333333333326 -0.1428571428571429 0
0.4285714285714284 -0.1428571428571429 0
0.5238095238095237 -0.1428571428571429 0
0.6190476190476191 -0.1428571428571429 0
0.7142857142857142 -0.1428571428571429 0
0.8095238095238093 -0.1428571428571429 0
0.9047619047619047 -0.1428571428571429 0
1 -0.1428571428571429 0
-1 -0.04761904761904767 0
-0.9047619047619048 -0.04761904761904767 0
-0.8095238095238095 -0.04761904761904767 0
-0.7142857142857143 -0.04761904761904767 0
-0.6190476190476191 -0.04761904761904767 0
-0.5238095238095238 -0.04761904761904767 0
-0.4285714285714286 -0.04761904761904767 0
-0.33333333333333337 -0.04761904761904767 0
-0.23809523809523814 -0.04761904761904767 0
-0.1428571428571429 -0.04761904761904767 0
-0.04761904761904767 -0.04761904761904767 0
0.04761904761904745 -0.04761904761904767 0
0.1428571428571428 -0.04761904761904767 0
0.23809523809523814 -0.04761904761904767 0
0.33333333333333326 -0.04761904761904767 0
0.4285714285714284 -0.04761904761904767 0
0.5238095238095237 -0.04761904761904767 0
0.6190476190476191 -0.04761904761904767 0
0.7142857142857142 -0.04761904761904767 0
0.8095238095238093 -0.04761904761904767 0
0.9047619047619047 -0.04761904761904767 0
1 -0.04761904761904767 0
-1 0.04761904761904745 0
-0.9047619047619048 0.04761904761904745 0
-0.8095238095238095 0.04761904761904745 0
-0.7142857142857143 0.04761904761904745 0
-0.6190476190476191 0.04761904761904745 0
-0.5238095238095238 0.04761904761904745 0
-0.4285714285714286 0.04761904761904745 0
-0.33333333333333337 0.04761904761904745 0
-0.23809523809523814 0.04761904761904745 0
-0.1428571428571429 0.04761904761904745 0
-0.04761904761904767 0.04761904761904745 0
[...]
POINT_DATA 484
SCALARS phi double 1
LOOKUP_TABLE default
-1.2401434992741867
-1.192524451655139
-1.146966488405608
-1.1076557381401737
-1.0753654878753434
-1.0497338980365511
-1.0257898897723567
-1.0088497300281039
-1.0007253605088324
-1
-1
-1
-1
-1.0007253605088324
-1.0088497300281036
-1.0257898897723567
-1.0497338980365511
-1.0753654878753434
-1.1076557381401737
-1.146966488405608
-1.192524451655139
-1.2401434992741867
-1.158494944721695
-1.1100458417709067
-1.062636505706679
-1.020081100682618
-0.9849239311989448
-0.9577409621994971
-0.9331875493530621
-0.9145336965285467
-0.9055635546298907
-0.9047619047619048
-0.9047619047619048
-0.9047619047619048
-0.9047619047619048
-0.9055635546298907
-0.9145336965285467
-0.933187549353062
-0.9577409621994969
-0.9849239311989448
-1.020081100682618
-1.062636505706679
-1.1100458417709067
-1.158494944721695
-1.0790697543375423
-1.0276065328100874
-0.9799481842676269
-0.934007633413149
-0.8954775025384799
-0.8657541483586644
-0.8410985934955361
-0.8204307258774008
-0.8104196723620879
-0.8095238095238095
-0.8095238095238095
-0.8095238095238095
-0.8095238095238095
-0.8104196723620879
-0.8204307258774008
-0.8410985934955361
-0.8657541483586644
-0.8954775025384799
-0.934007633413149
-0.9799481842676268
-1.0276065328100874
-1.0790697543375423
-1.0024036722177372
-0.9467823264211738
-0.8974695743833946
-0.8498915555218571
-0.8073570179455208
-0.7742581238021122
-0.749105657658482
-0.7266236022938085
-0.7153008659285867
-0.7142857142857143
-0.7142857142857143
-0.7142857142857143
-0.7142857142857143
-0.7153008659285867
-0.7266236022938085
-0.749105657658482
-0.7742581238021122
-0.8073570179455208
-0.8498915555218571
-0.8974695743833946
-0.9467823264211738
-1.0024036722177372
-0.9291799066888431
-0.8688837382194308
-0.8152810507176154
-0.7673719168801149
-0.7210487784251325
-0.6837847824542885
-0.657112721821428
-0.6332438175192111
-0.6202186725777119
-0.6190476190476191
-0.6190476190476191
-0.6190476190476191
-0.6190476190476191
-0.6202186725777119
-0.6332438175192111
-0.6571127218214279
-0.6837847824542884
-0.7210487784251325
-0.7673719168801147
-0.8152810507176151
-0.8688837382194308
-0.9291799066888431
-0.8601927867747965
-0.7947714873031212
-0.735789343594389
-0.6848933069958824
-0.6372742593768349
-0.5948009790910833
-0.5651197859843738
-0.5405128999490557
-0.5251929782461805
-0.5238095238095238
-0.5238095238095238
-0.5238095238095238
-0.5238095238095238
-0.5251929782461805
-0.5405128999490557
-0.5651197859843738
-0.5948009790910833
-0.6372742593768349
-0.6848933069958824
-0.7357893435943889
-0.7947714873031212
-0.8601927867747965
-0.792849283804649
-0.7255057808345018
-0.6604765811170492
-0.60340214193378
-0.5547956494926026
-0.5080899234471443
-0.4732295930363706
-0.44847741728041296
-0.43026121897434355
-0.4285714285714286
-0.4285714285714286
-0.4285714285714286
-0.4285714285714286
-0.43026121897434355
-0.44847741728041296
-0.47322959303637047
-0.5080899234471443
-0.5547956494926026
-0.60340214193378
-0.6604765811170491
-0.7255057808345018
-0.7928492838046493
-0.7270129014371237
-0.6581622778643543
-0.590818774894207
-0.5263820765531807
-0.4723170396083704
-0.42469799198932273
-0.3826930922754467
-0.35648448144335887
-0.3355031419773055
-0.33333333333333337
-0.33333333333333337
-0.33333333333333337
-0.33333333333333337
-0.3355031419773055
-0.3564844814433588
-0.3826930922754466
-0.4246979919893227
-0.4723170396083704
-0.5263820765531806
-0.5908187748942069
-0.6581622778643542
-0.7270129014371237
-0.6679847254670735
-0.5926684955345919
-0.5234752719240595
-0.4561317689539122
-0.3926933230488304
-0.34221938210509045
-0.29513106850089366
-0.2644915456063048
-0.24112359811756504
-0.23809523809523814
-0.23809523809523814
-0.23809523809523814
-0.23809523809523814
-0.24112359811756504
-0.2644915456063047
-0.29513106850089355
-0.3422193821050904
-0.3926933230488304
-0.4561317689539121
-0.5234752719240594
-0.5926684955345918
-0.6679847254670735
-0.6176563118272155
-0.5357726847924353
-0.4585251481443195
-0.38878826598376487
-0.32144476301361746
-0.2600368830688247
-0.21212172460181064
-0.17249860976925063
-0.1478492828215241
-0.1428571428571429
-0.1428571428571429
-0.1428571428571429
-0.1428571428571429
-0.1478492828215241
-0.1724986097692506
-0.2121217246018105
-0.26003688306882466
-0.32144476301361746
-0.3887882659837647
-0.45852514814431933
-0.5357726847924352
-0.6176563118272154
-0.5700579379159826
-0.4875586543239355
-0.4050800444397033
-0.32483204352499717
-0.25410126004347006
-0.18675775707332273
-0.12964311471757836
-0.08217221383313479
-0.05585624106528981
-0.04761904761904767
-0.04761904761904767
-0.04761904761904767
-0.04761904761904767
-0.05585624106528981
-0.08217221383313475
-0.12964311471757828
-0.18675775707332265
-0.25410126004347006
-0.32483204352499706
-0.4050800444397031
-0.4875586543239354
-0.5700579379159826
-0.5296677580455087
-0.44172853154248476
-0.35746099682065574
-0.2749823869364235
-0.19252942803323134
-0.11941425410317537
-0.05207075113302803
0.00045454278570139945
0.036136694771764205
0.04761904761904745
0.04761904761904745
0.04761904761904745
0.04761904761904745
0.036136694771764205
0.00045454278570145496
-0.05207075113302788
-0.11941425410317531
-0.19252942803323134
-0.2749823869364234
-0.3574609968206555
-0.44172853154248465
-0.5296677580455087
-0.5025713887235437
-0.41057845288648953
-0.31869000253327606
-0.22895558197760965
-0.14488472943314357
-0.062406119548911336
0.01527275183711945
0.0826162548072668
0.1281296306088184
0.1428571428571428
0.1428571428571428
0.1428571428571428
0.1428571428571428
0.1281296306088184
0.08261625480726688
0.015272751837119604
-0.06240611954891124
-0.14488472943314357
-0.22895558197760954
-0.31869000253327584
-0.4105784528864894
-0.5025713887235437
-0.4790690037714562
-0.38602222554366133
-0.29393608418252865
-0.20194314834547455
-0.10995021250842046
-0.01795727667136635
0.06769153795436858
0.1499597577774143
0.21303081017321374
0.23809523809523814
0.23809523809523814
0.23809523809523814
0.23809523809523814
0.21303081017321374
0.14995975777741438
0.06769153795436877
-0.017957276671366238
-0.10995021250842046
-0.20194314834547447
-0.2939360841825285
-0.3860222255436612
-0.4790690037714562
-0.47021229436374234
-0.3749741991256471
-0.2797361038875519
-0.18449800864945665
-0.08925991341136141
0.005978181826733819
0.09868509203259447
0.19067802786964858
0.2802678053418806
0.33333333333333326
0.33333333333333326
0.33333333333333326
0.33333333333333326
0.2802678053418806
0.1906780278696487
0.09868509203259469
0.00597818182673393
-0.08925991341136141
-0.18449800864945654
-0.27973610388755166
-0.374974199125647
-0.47021229436374234
-0.47021229436374234
-0.3749741991256471
-0.2797361038875519
-0.18449800864945665
-0.08925991341136141
0.005978181826733819
0.10121627706482905
0.19645437230292428
0.2916924675410195
0.38693056277911475
0.4285714285714284
0.4285714285714284
0.38693056277911486
0.2916924675410195
0.1964543723029244
0.10121627706482927
0.00597818182673393
-0.08925991341136141
-0.18449800864945654
-0.27973610388755166
-0.374974199125647
-0.47021229436374234
-0.47021229436374234
-0.3749741991256471
-0.2797361038875519
-0.18449800864945665
-0.08925991341136141
0.005978181826733819
0.10121627706482905
0.19645437230292428
0.2916924675410195
0.38693056277911475
0.48216865801721
0.4821686580172102
0.38693056277911486
0.2916924675410195
0.1964543723029244
0.10121627706482927
0.00597818182673393
-0.08925991341136141
-0.18449800864945654
-0.27973610388755166
-0.374974199125647
-0.47021229436374234
-0.47021229436374234
-0.3749741991256471
-0.2797361038875519
-0.18449800864945665
-0.08925991341136141
0.005978181826733819
0.10121627706482905
0.19645437230292428
0.2916924675410195
0.38693056277911475
0.48216865801721
0.4821686580172102
0.38693056277911486
0.2916924675410195
0.1964543723029244
0.10121627706482927
0.00597818182673393
-0.08925991341136141
-0.18449800864945654
-0.27973610388755166
-0.374974199125647
-0.47021229436374234
-0.47021229436374234
-0.3749741991256471
-0.2797361038875519
-0.18449800864945665
-0.08925991341136141
0.005978181826733819
0.10121627706482905
0.19645437230292428
0.2916924675410195
0.38693056277911475
0.48216865801721
0.4821686580172102
0.38693056277911486
0.2916924675410195
0.1964543723029244
0.10121627706482927
0.00597818182673393
-0.08925991341136141
-0.18449800864945654
-0.27973610388755166
-0.374974199125647
-0.47021229436374234
-0.47021229436374234
-0.3749741991256471
-0.2797361038875519
-0.18449800864945665
-0.08925991341136141
0.005978181826733819
0.10121627706482905
0.19645437230292428
0.2916924675410195
0.38693056277911475
0.48216865801721
0.4821686580172102
0.38693056277911486
0.2916924675410195
0.1964543723029244
0.10121627706482927
0.00597818182673393
-0.08925991341136141
-0.18449800864945654
-0.27973610388755166
-0.374974199125647
-0.47021229436374234
-0.47021229436374234
-0.3749741991256471
-0.2797361038875519
-0.18449800864945665
-0.08925991341136141
0.005978181826733819
0.10121627706482905
0.19645437230292428
0.2916924675410195
0.38693056277911475
0.48216865801721
0.4821686580172102
0.38693056277911486
0.2916924675410195
0.1964543723029244
0.10121627706482927
0.00597818182673393
-0.08925991341136141
-0.18449800864945654
-0.27973610388755166
-0.374974199125647
-0.47021229436374234
-0.47021229436374234
-0.3749741991256471
-0.2797361038875519
-0.18449800864945665
-0.08925991341136141
0.005978181826733819
0.10121627706482905
0.19645437230292428
0.2916924675410195
0.38693056277911475
0.48216865801721
0.4821686580172102
0.38693056277911486
0.2916924675410195
0.1964543723029244
0.10121627706482927
0.00597818182673393
-0.08925991341136141
-0.18449800864945654
-0.27973610388755166
-0.374974199125647
-0.47021229436374234

SCALARS psi double 1
LOOKUP_TABLE default
-0.8528989308044553
-0.8733750428098592
-0.898339048177963
-0.9227302770308102
-0.946493149905176
-0.9707663803199689
-1.0011457036676896
-1.0320413876428365
-1.062038667677985
-1.092706796721406
-1.1299466792564643
-1.1299466792564643
-1.092706796721406
-1.062038667677985
-1.0320413876428367
-1.0011457036676896
-0.9707663803199689
-0.946493149905176
-0.9227302770308102
-0.898339048177963
-0.8733750428098592
-0.8528989308044553
-0.8124110581712795
-0.8303171332635056
-0.8544463746611446
-0.8800549561474216
-0.9049391385655207
-0.9294033842186186
-0.9593895950494653
-0.9915871625453077
-1.022771629817787
-1.054582295848958
-1.0931217558349178
-1.093121755834918
-1.0545822958489581
-1.022771629817787
-0.991587162545308
-0.9593895950494654
-0.9294033842186189
-0.9049391385655207
-0.8800549561474216
-0.8544463746611446
-0.8303171332635056
-0.8124110581712795
-0.7698058837480213
-0.7877331371373764
-0.8086079863426464
-0.8352019441607672
-0.8613828453121131
-0.8867911393705161
-0.9158007001367908
-0.9494107520149319
-0.9819355792907374
-1.0150268438987033
-1.0550122502589803
-1.0550122502589805
-1.0150268438987033
-0.9819355792907374
-0.9494107520149319
-0.9158007001367908
-0.8867911393705161
-0.8613828453121131
-0.8352019441607672
-0.8086079863426466
-0.7877331371373764
-0.7698058837480213
-0.724700262085758
-0.7437155817638802
-0.7626956411611595
-0.7877993711727684
-0.8155035057486119
-0.8422969111639569
-0.8706258889895668
-0.9052714792582729
-0.9393259056333638
-0.9738660939533043
-1.0154735463385645
-1.0154735463385645
-0.9738660939533043
-0.9393259056333638
-0.9052714792582729
-0.8706258889895668
-0.8422969111639569
-0.8155035057486119
-0.7877993711727684
-0.7626956411611592
-0.7437155817638802
-0.724700262085758
-0.6765942957794283
-0.6969234088280297
-0.7166761015017186
-0.7384005651975668
-0.7668842999948304
-0.7953173255038695
-0.8237130227621945
-0.8588667686407274
-0.8946892377305331
-0.9308871274589468
-0.9743316675703014
-0.9743316675703014
-0.9308871274589468
-0.8946892377305331
-0.8588667686407276
-0.8237130227621946
-0.7953173255038695
-0.7668842999948304
-0.7384005651975669
-0.7166761015017186
-0.6969234088280297
-0.6765942957794283
-0.6249125117631221
-0.6467546744992071
-0.6679925191780187
-0.6887004786077393
-0.7149800881734961
-0.7453825929929624
-0.7747464348020646
-0.8098072618791883
-0.8477054365920663
-0.885825332210404
-0.9313741855705617
-0.931374185570562
-0.885825332210404
-0.8477054365920663
-0.8098072618791883
-0.7747464348020646
-0.7453825929929624
-0.7149800881734961
-0.6887004786077393
-0.6679925191780187
-0.6467546744992071
-0.6249125117631221
-0.5738205453092792
-0.5924756663892695
-0.6154700454870974
-0.6377505574933746
-0.6610215750821251
-0.6918531431071171
-0.7232419306810577
-0.757788050753108
-0.797960012998552
-0.8383449136856358
-0.8863371529300409
-0.8863371529300411
-0.8383449136856358
-0.797960012998552
-0.757788050753108
-0.7232419306810579
-0.6918531431071171
-0.6610215750821251
-0.6377505574933746
-0.6154700454870973
-0.5924756663892693
-0.5738205453092788
-0.5243143742382212
-0.5383138360885336
-0.5581569520920826
-0.5825076349690228
-0.606001374879477
-0.6340513184090215
-0.6679404554191551
-0.7027566114986207
-0.7448998976114525
-0.7880088003439296
-0.838885703645636
-0.8388857036456361
-0.7880088003439296
-0.7448998976114525
-0.7027566114986207
-0.6679404554191551
-0.6340513184090216
-0.606001374879477
-0.5825076349690229
-0.5581569520920825
-0.5383138360885338
-0.5243143742382212
-0.47006769176464497
-0.48519823880361734
-0.5002934679062555
-0.5215850372413285
-0.547564528345764
-0.5735758534814831
-0.6076265412865318
-0.6439768390456074
-0.6877583387923814
-0.7342298989665176
-0.7885841102241012
-0.7885841102241012
-0.7342298989665177
-0.6877583387923814
-0.6439768390456075
-0.6076265412865319
-0.5735758534814831
-0.547564528345764
-0.5215850372413285
-0.5002934679062554
-0.48519823880361734
-0.47006769176464497
-0.4092950094208891
-0.42599929899737593
-0.44263879048660715
-0.45913540697160543
-0.482247570216121
-0.5102339469379054
-0.541452889179518
-0.5803108413002822
-0.6254176266266879
-0.6761872667044876
-0.7348473134024786
-0.7348473134024788
-0.6761872667044877
-0.6254176266266879
-0.5803108413002822
-0.5414528891795181
-0.5102339469379055
-0.482247570216121
-0.45913540697160554
-0.4426387904866073
-0.42599929899737593
-0.40929500942088926
-0.352208400302384
-0.3616758447249768
-0.3769345479903468
-0.3955260632989452
-0.4139046869030313
-0.439402420208022
-0.47048337441716354
-0.5096658275031488
-0.5566702650654127
-0.6126702985865965
-0.676857628406258
-0.6768576284062581
-0.6126702985865965
-0.5566702650654127
-0.5096658275031489
-0.4704833744171636
-0.439402420208022
-0.4139046869030313
-0.39552606329894524
-0.3769345479903469
-0.3616758447249768
-0.352208400302384
-0.29428651180190774
-0.3025465874901181
-0.31068763532018073
-0.32322915283284287
-0.34198338359352454
-0.3630824393241995
-0.3919008226451965
-0.42970570971127103
-0.4794074656091792
-0.5417569287854956
-0.6134100783722479
-0.6134100783722481
-0.5417569287854956
-0.4794074656091792
-0.4297057097112712
-0.39190082264519654
-0.36308243932419954
-0.34198338359352454
-0.32322915283284287
-0.31068763532018073
-0.30254658749011826
-0.29428651180190774
-0.2255011061259853
-0.2331525935776752
-0.24293644839806808
-0.25287942686910797
-0.2632582290756132
-0.2801256196022419
-0.3038760037431806
-0.33778398821628036
-0.38858260542252276
-0.46003939505654934
-0.5425934015130949
-0.5425934015130951
-0.4600393950565494
-0.38858260542252276
-0.3377839882162804
-0.3038760037431807
-0.28012561960224197
-0.2632582290756132
-0.252879426869108
-0.24293644839806813
-0.23315259357767526
-0.2255011061259853
-0.1683404096116078
-0.16834040961160787
-0.16911495600801663
-0.17321801910857137
-0.18062193948554997
-0.1909431249992161
-0.20593346630453557
-0.2298964844364523
-0.2764929866182462
-0.3602386988108011
-0.4610241582416846
-0.46102415824168486
-0.3602386988108013
-0.2764929866182462
-0.2298964844364524
-0.2059334663045356
-0.1909431249992161
-0.18062193948554997
-0.1732180191085714
-0.1691149560080166
-0.1683404096116078
-0.1683404096116078
-0.09645437230292415
-0.09645437230292443
-0.09645437230292422
-0.09645437230292425
-0.09645437230292425
-0.09645437230292424
-0.09904258321415957
-0.10742279097579166
-0.12584871411884022
-0.21887803735825698
-0.361495435101686
-0.3614954351016863
-0.21887803735825717
-0.12584871411884022
-0.10742279097579166
-0.09904258321415954
-0.09645437230292425
-0.09645437230292425
-0.09645437230292425
-0.09645437230292415
-0.09645437230292443
-0.09645437230292415
-0.0012162770648337382
-0.0012162770648337382
-0.0012162770648280331
-0.0012162770648280331
-0.0012162770648294595
-0.0012162770648291308
-0.0012162770648287463
-0.0012162770648251806
-0.0012162770648337382
-0.001216277064822328
-0.22094031935402977
-0.2209403193540304
-0.001216277064822328
-0.0012162770648337382
-0.0012162770648280331
-0.0012162770648287463
-0.0012162770648291308
-0.0012162770648294595
-0.0012162770648280331
-0.0012162770648280331
-0.0012162770648337382
-0.0012162770648337382
0.09402181817326606
0.09402181817326637
0.09402181817326628
0.09402181817326621
0.09402181817326623
0.09402181817326621
0.0940218181732662
0.09402181817326626
0.09402181817326621
0.09402181817326621
0.09402181817326621
0.09402181817326621
0.09402181817326621
0.09402181817326621
0.09402181817326621
0.0940218181732662
0.09402181817326621
0.09402181817326623
0.09402181817326626
0.09402181817326628
0.09402181817326621
0.09402181817326606
0.18925991341136159
0.18925991341136153
0.18925991341136156
0.18925991341136153
0.18925991341136156
0.18925991341136156
0.18925991341136153
0.18925991341136156
0.18925991341136156
0.18925991341136159
0.18925991341136175
0.18925991341136145
0.18925991341136159
0.18925991341136156
0.18925991341136153
0.18925991341136156
0.18925991341136156
0.18925991341136156
0.18925991341136159
0.18925991341136159
0.18925991341136159
0.18925991341136159
0.28449800864945657
0.28449800864945674
0.2844980086494566
0.2844980086494567
0.2844980086494567
0.2844980086494567
0.2844980086494567
0.2844980086494567
0.28449800864945674
0.2844980086494567
0.2844980086494567
0.2844980086494567
0.2844980086494566
0.28449800864945674
0.2844980086494567
0.28449800864945674
0.2844980086494567
0.2844980086494567
0.28449800864945674
0.2844980086494567
0.2844980086494566
0.28449800864945657
0.3797361038875517
0.37973610388755175
0.3797361038875518
0.3797361038875518
0.3797361038875518
0.3797361038875518
0.3797361038875518
0.37973610388755186
0.3797361038875518
0.3797361038875518
0.3797361038875518
0.37973610388755186
0.3797361038875517
0.3797361038875518
0.3797361038875518
0.37973610388755175
0.3797361038875518
0.3797361038875518
0.3797361038875518
0.3797361038875518
0.3797361038875517
0.3797361038875517
0.47497419912564703
0.4749741991256472
0.4749741991256472
0.4749741991256471
0.4749741991256471
0.47497419912564715
0.4749741991256471
0.47497419912564703
0.4749741991256471
0.47497419912564715
0.4749741991256471
0.47497419912564726
0.47497419912564703
0.4749741991256471
0.47497419912564715
0.47497419912564715
0.4749741991256471
0.4749741991256471
0.4749741991256472
0.4749741991256472
0.4749741991256471
0.47497419912564703
0.5702122943637425
0.5702122943637425
0.5702122943637425
0.5702122943637424
0.5702122943637425
0.5702122943637424
0.5702122943637424
0.5702122943637424
0.5702122943637424
0.5702122943637425
0.5702122943637424
0.5702122943637425
0.5702122943637424
0.5702122943637424
0.5702122943637425
0.5702122943637424
0.5702122943637424
0.5702122943637425
0.5702122943637424
0.5702122943637424
0.5702122943637424
0.5702122943637425

