# vtk DataFile Version 4.1
Header:
ASCII

DATASET UNSTRUCTURED_GRID
POINTS 2 double
-0.5039058011260056 0.23319512300735065 0
0.5039058011260056 0.23319512300735065 0


POINT_DATA 2
VECTORS tangent_vectors double
-0.5000000000000003 0.8660254037844385 0.0
0.5000000000000003 0.8660254037844385 0.0


VECTORS normal_vectors double
0.8660254037844385 0.5000000000000003 0.0
-0.8660254037844385 0.5000000000000003 0.0


