# vtk DataFile Version 4.1
Header:
ASCII

DATASET UNSTRUCTURED_GRID
POINTS 5 double
-0.29659258262890686 0.025881904510252074 0.0
-0.2 0 0.0
0 0 0.0
0.2 0 0.0
0.29659258262890686 0.025881904510252074 0.0


POINT_DATA 5
VECTORS normals double
0.2588190451025207 0.9659258262890683 0.0
0.0869337923250398 0.9962140913237407 0.0
0 1 0.0
-0.0869337923250398 0.9962140913237407 0.0
-0.2588190451025207 0.9659258262890683 0.0

