# vtk DataFile Version 4.1
Header:
ASCII

DATASET UNSTRUCTURED_GRID
POINTS 484 double
-1 -1 0
-0.9047619047619048 -1 0
-0.8095238095238095 -1 0
-0.7142857142857143 -1 0
-0.6190476190476191 -1 0
-0.5238095238095238 -1 0
-0.4285714285714286 -1 0
-0.33333333333333337 -1 0
-0.23809523809523814 -1 0
-0.1428571428571429 -1 0
-0.04761904761904767 -1 0
0.04761904761904745 -1 0
0.1428571428571428 -1 0
0.23809523809523814 -1 0
0.33333333333333326 -1 0
0.4285714285714284 -1 0
0.5238095238095237 -1 0
0.6190476190476191 -1 0
0.7142857142857142 -1 0
0.8095238095238093 -1 0
0.9047619047619047 -1 0
1 -1 0
-1 -0.9047619047619048 0
-0.9047619047619048 -0.9047619047619048 0
-0.8095238095238095 -0.9047619047619048 0
-0.7142857142857143 -0.9047619047619048 0
-0.6190476190476191 -0.9047619047619048 0
-0.5238095238095238 -0.9047619047619048 0
-0.4285714285714286 -0.9047619047619048 0
-0.33333333333333337 -0.9047619047619048 0
-0.23809523809523814 -0.9047619047619048 0
-0.1428571428571429 -0.9047619047619048 0
-0.04761904761904767 -0.9047619047619048 0
0.04761904761904745 -0.9047619047619048 0
0.1428571428571428 -0.9047619047619048 0
0.23809523809523814 -0.9047619047619048 0
0.33333333333333326 -0.9047619047619048 0
0.4285714285714284 -0.9047619047619048 0
0.5238095238095237 -0.9047619047619048 0
0.6190476190476191 -0.9047619047619048 0
0.7142857142857142 -0.9047619047619048 0
0.8095238095238093 -0.9047619047619048 0
0.9047619047619047 -0.9047619047619048 0
1 -0.9047619047619048 0
-1 -0.8095238095238095 0
-0.9047619047619048 -0.8095238095238095 0
-0.8095238095238095 -0.8095238095238095 0
-0.7142857142857143 -0.8095238095238095 0
-0.6190476190476191 -0.8095238095238095 0
-0.5238095238095238 -0.8095238095238095 0
-0.4285714285714286 -0.8095238095238095 0
-0.33333333333333337 -0.8095238095238095 0
-0.23809523809523814 -0.8095238095238095 0
-0.1428571428571429 -0.8095238095238095 0
-0.04761904761904767 -0.8095238095238095 0
0.04761904761904745 -0.8095238095238095 0
0.1428571428571428 -0.8095238095238095 0
0.23809523809523814 -0.8095238095238095 0
0.33333333333333326 -0.8095238095238095 0
0.4285714285714284 -0.8095238095238095 0
0.5238095238095237 -0.8095238095238095 0
0.6190476190476191 -0.8095238095238095 0
0.7142857142857142 -0.8095238095238095 0
0.8095238095238093 -0.8095238095238095 0
0.9047619047619047 -0.8095238095238095 0
1 -0.8095238095238095 0
-1 -0.7142857142857143 0
-0.9047619047619048 -0.7142857142857143 0
-0.8095238095238095 -0.7142857142857143 0
-0.7142857142857143 -0.7142857142857143 0
-0.6190476190476191 -0.7142857142857143 0
-0.5238095238095238 -0.7142857142857143 0
-0.4285714285714286 -0.7142857142857143 0
-0.33333333333333337 -0.7142857142857143 0
-0.23809523809523814 -0.7142857142857143 0
-0.1428571428571429 -0.7142857142857143 0
-0.04761904761904767 -0.7142857142857143 0
0.04761904761904745 -0.7142857142857143 0
0.1428571428571428 -0.7142857142857143 0
0.23809523809523814 -0.7142857142857143 0
0.33333333333333326 -0.7142857142857143 0
0.4285714285714284 -0.7142857142857143 0
0.5238095238095237 -0.7142857142857143 0
0.6190476190476191 -0.7142857142857143 0
0.7142857142857142 -0.7142857142857143 0
0.8095238095238093 -0.7142857142857143 0
0.9047619047619047 -0.7142857142857143 0
1 -0.7142857142857143 0
-1 -0.6190476190476191 0
-0.9047619047619048 -0.6190476190476191 0
-0.8095238095238095 -0.6190476190476191 0
-0.7142857142857143 -0.6190476190476191 0
-0.6190476190476191 -0.6190476190476191 0
-0.5238095238095238 -0.6190476190476191 0
-0.4285714285714286 -0.6190476190476191 0
-0.33333333333333337 -0.6190476190476191 0
-0.23809523809523814 -0.6190476190476191 0
-0.1428571428571429 -0.6190476190476191 0
-0.04761904761904767 -0.6190476190476191 0
0.04761904761904745 -0.6190476190476191 0
0.1428571428571428 -0.6190476190476191 0
0.23809523809523814 -0.6190476190476191 0
0.33333333333333326 -0.6190476190476191 0
0.4285714285714284 -0.6190476190476191 0
0.5238095238095237 -0.6190476190476191 0
0.6190476190476191 -0.6190476190476191 0
0.7142857142857142 -0.6190476190476191 0
0.8095238095238093 -0.6190476190476191 0
0.9047619047619047 -0.6190476190476191 0
1 -0.6190476190476191 0
-1 -0.5238095238095238 0
-0.9047619047619048 -0.5238095238095238 0
-0.8095238095238095 -0.5238095238095238 0
-0.7142857142857143 -0.5238095238095238 0
-0.6190476190476191 -0.5238095238095238 0
-0.5238095238095238 -0.5238095238095238 0
-0.4285714285714286 -0.5238095238095238 0
-0.33333333333333337 -0.5238095238095238 0
-0.23809523809523814 -0.5238095238095238 0
-0.1428571428571429 -0.5238095238095238 0
-0.04761904761904767 -0.5238095238095238 0
0.04761904761904745 -0.5238095238095238 0
0.1428571428571428 -0.5238095238095238 0
0.23809523809523814 -0.5238095238095238 0
0.33333333333333326 -0.5238095238095238 0
0.4285714285714284 -0.5238095238095238 0
0.5238095238095237 -0.5238095238095238 0
0.6190476190476191 -0.5238095238095238 0
0.7142857142857142 -0.5238095238095238 0
0.8095238095238093 -0.5238095238095238 0
0.9047619047619047 -0.5238095238095238 0
1 -0.5238095238095238 0
-1 -0.4285714285714286 0
-0.9047619047619048 -0.4285714285714286 0
-0.8095238095238095 -0.4285714285714286 0
-0.7142857142857143 -0.4285714285714286 0
-0.6190476190476191 -0.4285714285714286 0
-0.5238095238095238 -0.4285714285714286 0
-0.4285714285714286 -0.4285714285714286 0
-0.33333333333333337 -0.4285714285714286 0
-0.23809523809523814 -0.4285714285714286 0
-0.1428571428571429 -0.4285714285714286 0
-0.04761904761904767 -0.4285714285714286 0
0.04761904761904745 -0.4285714285714286 0
0.1428571428571428 -0.4285714285714286 0
0.23809523809523814 -0.4285714285714286 0
0.33333333333333326 -0.4285714285714286 0
0.4285714285714284 -0.4285714285714286 0
0.5238095238095237 -0.4285714285714286 0
0.6190476190476191 -0.4285714285714286 0
0.7142857142857142 -0.4285714285714286 0
0.8095238095238093 -0.4285714285714286 0
0.9047619047619047 -0.4285714285714286 0
1 -0.4285714285714286 0
-1 -0.33333333333333337 0
-0.9047619047619048 -0.33333333333333337 0
-0.8095238095238095 -0.33333333333333337 0
-0.7142857142857143 -0.33333333333333337 0
-0.6190476190476191 -0.33333333333333337 0
-0.5238095238095238 -0.33333333333333337 0
-0.4285714285714286 -0.33333333333333337 0
-0.33333333333333337 -0.33333333333333337 0
-0.23809523809523814 -0.33333333333333337 0
-0.1428571428571429 -0.33333333333333337 0
-0.04761904761904767 -0.33333333333333337 0
0.04761904761904745 -0.33333333333333337 0
0.1428571428571428 -0.33333333333333337 0
0.23809523809523814 -0.33333333333333337 0
0.33333333333333326 -0.33333333333333337 0
0.4285714285714284 -0.33333333333333337 0
0.5238095238095237 -0.33333333333333337 0
0.6190476190476191 -0.33333333333333337 0
0.7142857142857142 -0.33333333333333337 0
0.8095238095238093 -0.33333333333333337 0
0.9047619047619047 -0.33333333333333337 0
1 -0.33333333333333337 0
-1 -0.23809523809523814 0
-0.9047619047619048 -0.23809523809523814 0
-0.8095238095238095 -0.23809523809523814 0
-0.7142857142857143 -0.23809523809523814 0
-0.6190476190476191 -0.23809523809523814 0
-0.5238095238095238 -0.23809523809523814 0
-0.4285714285714286 -0.23809523809523814 0
-0.33333333333333337 -0.23809523809523814 0
-0.23809523809523814 -0.23809523809523814 0
-0.1428571428571429 -0.23809523809523814 0
-0.04761904761904767 -0.23809523809523814 0
0.04761904761904745 -0.23809523809523814 0
0.1428571428571428 -0.23809523809523814 0
0.23809523809523814 -0.23809523809523814 0
0.33333333333333326 -0.23809523809523814 0
0.4285714285714284 -0.23809523809523814 0
0.5238095238095237 -0.23809523809523814 0
0.6190476190476191 -0.23809523809523814 0
0.7142857142857142 -0.23809523809523814 0
0.8095238095238093 -0.23809523809523814 0
0.9047619047619047 -0.23809523809523814 0
1 -0.23809523809523814 0
-1 -0.1428571428571429 0
-0.9047619047619048 -0.1428571428571429 0
-0.8095238095238095 -0.1428571428571429 0
-0.7142857142857143 -0.1428571428571429 0
-0.6190476190476191 -0.1428571428571429 0
-0.5238095238095238 -0.1428571428571429 0
-0.4285714285714286 -0.1428571428571429 0
-0.33333333333333337 -0.1428571428571429 0
-0.23809523809523814 -0.1428571428571429 0
-0.1428571428571429 -0.1428571428571429 0
-0.04761904761904767 -0.1428571428571429 0
0.04761904761904745 -0.1428571428571429 0
0.1428571428571428 -0.1428571428571429 0
0.23809523809523814 -0.1428571428571429 0
0.33333333333333326 -0.1428571428571429 0
0.4285714285714284 -0.1428571428571429 0
0.5238095238095237 -0.1428571428571429 0
0.6190476190476191 -0.1428571428571429 0
0.7142857142857142 -0.1428571428571429 0
0.8095238095238093 -0.1428571428571429 0
0.9047619047619047 -0.1428571428571429 0
1 -0.1428571428571429 0
-1 -0.04761904761904767 0
-0.9047619047619048 -0.04761904761904767 0
-0.8095238095238095 -0.04761904761904767 0
-0.7142857142857143 -0.04761904761904767 0
-0.6190476190476191 -0.04761904761904767 0
-0.5238095238095238 -0.04761904761904767 0
-0.4285714285714286 -0.04761904761904767 0
-0.33333333333333337 -0.04761904761904767 0
-0.23809523809523814 -0.04761904761904767 0
-0.1428571428571429 -0.04761904761904767 0
-0.04761904761904767 -0.04761904761904767 0
0.04761904761904745 -0.04761904761904767 0
0.1428571428571428 -0.04761904761904767 0
0.23809523809523814 -0.04761904761904767 0
0.33333333333333326 -0.04761904761904767 0
0.4285714285714284 -0.04761904761904767 0
0.5238095238095237 -0.04761904761904767 0
0.6190476190476191 -0.04761904761904767 0
0.7142857142857142 -0.04761904761904767 0
0.8095238095238093 -0.04761904761904767 0
0.9047619047619047 -0.04761904761904767 0
1 -0.04761904761904767 0
-1 0.04761904761904745 0
-0.9047619047619048 0.04761904761904745 0
-0.8095238095238095 0.04761904761904745 0
-0.7142857142857143 0.04761904761904745 0
-0.6190476190476191 0.04761904761904745 0
-0.5238095238095238 0.04761904761904745 0
-0.4285714285714286 0.04761904761904745 0
-0.33333333333333337 0.04761904761904745 0
-0.23809523809523814 0.04761904761904745 0
-0.1428571428571429 0.04761904761904745 0
-0.04761904761904767 0.04761904761904745 0
[...]
POINT_DATA 484
SCALARS phi double 1
LOOKUP_TABLE default
-1.2401434992741867
-1.192524451655139
-1.146966488405608
-1.1076557381401737
-1.0753654878753434
-1.0497338980365511
-1.0257898897723567
-1.0088497300281039
-1.0007253605088324
-1
-1
-1
-1
-1.0007253605088324
-1.0088497300281036
-1.0257898897723567
-1.0497338980365511
-1.0753654878753434
-1.1076557381401737
-1.146966488405608
-1.192524451655139
-1.2401434992741867
-1.158494944721695
-1.1100458417709067
-1.062636505706679
-1.020081100682618
-0.9849239311989448
-0.9577409621994971
-0.9331875493530621
-0.9145336965285467
-0.9055635546298907
-0.9047619047619048
-0.9047619047619048
-0.9047619047619048
-0.9047619047619048
-0.9055635546298907
-0.9145336965285467
-0.933187549353062
-0.9577409621994969
-0.9849239311989448
-1.020081100682618
-1.062636505706679
-1.1100458417709067
-1.158494944721695
-1.0790697543375423
-1.0276065328100874
-0.9799481842676269
-0.934007633413149
-0.8954775025384799
-0.8657541483586644
-0.8410985934955361
-0.8204307258774008
-0.8104196723620879
-0.8095238095238095
-0.8095238095238095
-0.8095238095238095
-0.8095238095238095
-0.8104196723620879
-0.8204307258774008
-0.8410985934955361
-0.8657541483586644
-0.8954775025384799
-0.934007633413149
-0.9799481842676268
-1.0276065328100874
-1.0790697543375423
-1.0024036722177372
-0.9467823264211738
-0.8974695743833946
-0.8498915555218571
-0.8073570179455208
-0.7742581238021122
-0.749105657658482
-0.7266236022938085
-0.7153008659285867
-0.7142857142857143
-0.7142857142857143
-0.7142857142857143
-0.7142857142857143
-0.7153008659285867
-0.7266236022938085
-0.749105657658482
-0.7742581238021122
-0.8073570179455208
-0.8498915555218571
-0.8974695743833946
-0.9467823264211738
-1.0024036722177372
-0.9291799066888431
-0.8688837382194308
-0.8152810507176154
-0.7673719168801149
-0.7210487784251325
-0.6837847824542885
-0.657112721821428
-0.6332438175192111
-0.6202186725777119
-0.6190476190476191
-0.6190476190476191
-0.6190476190476191
-0.6190476190476191
-0.6202186725777119
-0.6332438175192111
-0.6571127218214279
-0.6837847824542884
-0.7210487784251325
-0.7673719168801147
-0.8152810507176151
-0.8688837382194308
-0.9291799066888431
-0.8601927867747965
-0.7947714873031212
-0.735789343594389
-0.6848933069958824
-0.6372742593768349
-0.5948009790910833
-0.5651197859843738
-0.5405128999490557
-0.5251929782461805
-0.5238095238095238
-0.5238095238095238
-0.5238095238095238
-0.5238095238095238
-0.5251929782461805
-0.5405128999490557
-0.5651197859843738
-0.5948009790910833
-0.6372742593768349
-0.6848933069958824
-0.7357893435943889
-0.7947714873031212
-0.8601927867747965
-0.792849283804649
-0.7255057808345018
-0.6604765811170492
-0.60340214193378
-0.5547956494926026
-0.5080899234471443
-0.4732295930363706
-0.44847741728041296
-0.43026121897434355
-0.4285714285714286
-0.4285714285714286
-0.4285714285714286
-0.4285714285714286
-0.43026121897434355
-0.44847741728041296
-0.47322959303637047
-0.5080899234471443
-0.5547956494926026
-0.60340214193378
-0.6604765811170491
-0.7255057808345018
-0.7928492838046493
-0.7255057808345025
-0.6581622778643543
-0.590818774894207
-0.5263820765531807
-0.4723170396083704
-0.42469799198932273
-0.3826930922754467
-0.35648448144335887
-0.3355031419773055
-0.33333333333333337
-0.33333333333333337
-0.33333333333333337
-0.33333333333333337
-0.3355031419773055
-0.3564844814433588
-0.3826930922754466
-0.4246979919893227
-0.4723170396083704
-0.5263820765531806
-0.5908187748942069
-0.6581622778643542
-0.7255057808345018
-0.6581622778643553
-0.5908187748942081
-0.5234752719240595
-0.4561317689539122
-0.3926933230488304
-0.34221938210509045
-0.29513106850089366
-0.2644915456063048
-0.24112359811756504
-0.23809523809523814
-0.23809523809523814
-0.23809523809523814
-0.23809523809523814
-0.24112359811756504
-0.2644915456063047
-0.29513106850089355
-0.3422193821050904
-0.3926933230488304
-0.4561317689539121
-0.5234752719240594
-0.5908187748942069
-0.6581622778643542
-0.5908187748942069
-0.5234752719240597
-0.45613176895391255
-0.38878826598376487
-0.32144476301361746
-0.2600368830688247
-0.21212172460181064
-0.17249860976925063
-0.1478492828215241
-0.1428571428571429
-0.1428571428571429
-0.1428571428571429
-0.1428571428571429
-0.1478492828215241
-0.1724986097692506
-0.2121217246018105
-0.26003688306882466
-0.32144476301361746
-0.3887882659837647
-0.45613176895391205
-0.5234752719240595
-0.5908187748942069
-0.5234752719240596
-0.45613176895391255
-0.3887882659837654
-0.321444763013617
-0.25410126004347006
-0.18675775707332273
-0.12964311471757836
-0.08217221383313479
-0.05585624106528981
-0.04761904761904767
-0.04761904761904767
-0.04761904761904767
-0.04761904761904767
-0.05585624106528981
-0.08217221383313475
-0.12964311471757828
-0.18675775707332265
-0.25410126004347006
-0.3214447630136173
-0.38878826598376465
-0.45613176895391205
-0.5234752719240595
-0.45613176895391255
-0.3887882659837654
-0.3214447630136183
-0.2541012600434699
-0.18675775707332273
-0.11941425410317537
-0.05207075113302803
0.00045454278570139945
0.036136694771764205
0.04761904761904745
0.04761904761904745
0.04761904761904745
0.04761904761904745
0.036136694771764205
0.00045454278570145496
-0.05207075113302788
-0.11941425410317531
-0.18675775707332273
-0.25410126004347
-0.3214447630136173
-0.3887882659837647
-0.4561317689539121
-0.3887882659837642
-0.3214447630136183
-0.2541012600434711
-0.18675775707332273
-0.11941425410317558
-0.05207075113302843
0.01527275183711945
0.0826162548072668
0.1281296306088184
0.1428571428571428
0.1428571428571428
0.1428571428571428
0.1428571428571428
0.1281296306088184
0.08261625480726688
0.015272751837119604
-0.05207075113302782
-0.11941425410317526
-0.18675775707332254
-0.2541012600434698
-0.32144476301361724
-0.38878826598376465
-0.32144476301361574
-0.2541012600434699
-0.18675775707332273
-0.11941425410317433
-0.05207075113302718
0.015272751837119968
0.08261625480726711
0.1499597577774143
0.21303081017321374
0.23809523809523814
0.23809523809523814
0.23809523809523814
0.23809523809523814
0.21303081017321374
0.14995975777741438
0.0826162548072671
0.015272751837119663
-0.05207075113302777
-0.11941425410317504
-0.18675775707332232
-0.25410126004346967
-0.32144476301361713
-0.2541012600434686
-0.18675775707332148
-0.11941425410317433
-0.05207075113302718
0.015272751837119968
0.08261625480726711
0.14995975777741424
0.2173032607475614
0.284646763717709
0.33333333333333326
0.33333333333333326
0.33333333333333326
0.33333333333333326
0.284646763717709
0.2173032607475617
0.14995975777741444
0.08261625480726699
0.015272751837119576
-0.052070751133027705
-0.11941425410317498
-0.18675775707332243
-0.25410126004346983
-0.18675775707332273
-0.11941425410317433
-0.05207075113302718
0.015272751837121226
0.08261625480726711
0.14995975777741424
0.2173032607475614
0.28464676371770853
0.35199026668785566
0.4193337696580036
0.4285714285714284
0.4285714285714284
0.41933376965800373
0.35199026668785627
0.2846467637177091
0.21730326074756176
0.1499597577774143
0.08261625480726689
0.015272751837119614
-0.05207075113302765
-0.11941425410317506
-0.18675775707332248
-0.11941425410317559
-0.05207075113302843
0.015272751837119968
0.08261625480726838
0.14995975777741552
0.2173032607475614
0.2846467637177086
0.3519902666878557
0.4193337696580028
0.48667727262815125
0.5238095238095237
0.5238095238095237
0.4866772726281512
0.4193337696580038
0.35199026668785655
0.2846467637177092
0.21730326074756182
0.14995975777741438
0.08261625480726711
0.01527275183711985
-0.052070751133027574
-0.11941425410317502
-0.05207075113302843
0.015272751837118712
0.08261625480726587
0.14995975777741424
0.21730326074756268
0.2846467637177098
0.3519902666878557
0.4193337696580028
0.48667727262814997
0.5540207755982984
0.6190476190476191
0.6190476190476191
0.5540207755982987
0.48667727262815125
0.419333769658004
0.35199026668785677
0.2846467637177093
0.21730326074756187
0.1499597577774146
0.08261625480726735
0.01527275183711989
-0.05207075113302753
0.015272751837118714
0.08261625480726585
0.149959757777413
0.2173032607475614
0.2846467637177098
0.351990266687857
0.4193337696580041
0.48667727262814997
0.5540207755982971
0.6213642785684456
0.6887077815385927
0.6887077815385935
0.621364278568446
0.5540207755982987
0.48667727262815136
0.41933376965800406
0.35199026668785666
0.28464676371770925
0.21730326074756198
0.1499597577774147
0.08261625480726728
0.01527275183711989
0.08261625480726587
0.14995975777741302
0.21730326074756015
0.2846467637177086
0.3519902666878557
0.4193337696580028
0.48667727262815125
0.5540207755982984
0.6213642785684443
0.6887077815385926
0.7560512845087398
0.7560512845087407
0.6887077815385934
0.621364278568446
0.5540207755982987
0.4866772726281514
0.419333769658004
0.35199026668785655
0.2846467637177093
0.21730326074756204
0.14995975777741463
0.0826162548072672
0.14995975777741552
0.2173032607475614
0.2846467637177086
0.35199026668785693
0.41933376965800406
0.48667727262815125
0.5540207755982997
0.6213642785684468
0.6887077815385939
0.756051284508741
0.8233947874788883
0.8233947874788882
0.7560512845087408
0.6887077815385935
0.6213642785684462
0.5540207755982989
0.4866772726281514
0.419333769658004
0.35199026668785677
0.28464676371770953
0.2173032607475621
0.14995975777741466
0.21730326074756268
0.2846467637177098
0.3519902666878557
0.4193337696580041
0.48667727262815125
0.5540207755982984
0.6213642785684456
0.6887077815385939
0.756051284508741
0.8233947874788895
0.8907382904490354
0.8907382904490357
0.8233947874788884
0.7560512845087409
0.6887077815385937
0.6213642785684463
0.5540207755982989
0.4866772726281515
0.41933376965800434
0.351990266687857
0.28464676371770953
0.2173032607475621

SCALARS psi double 1
LOOKUP_TABLE default
-0.27374719321196944
-0.3095661624434765
-0.35441020429857073
-0.3944249174200717
-0.43073824772442293
-0.4664974000973943
-0.5129049453974649
-0.5580631619731437
-0.5998312283382304
-0.6414248345289462
-0.6926351684796622
-0.6926351684796622
-0.6414248345289462
-0.5998312283382304
-0.5580631619731441
-0.5129049453974649
-0.4664974000973943
-0.43073824772442293
-0.3944249174200717
-0.35441020429857073
-0.3095661624434765
-0.27374719321196944
-0.24790037364817194
-0.2764339225016723
-0.32033432971368575
-0.36411331390652624
-0.403166129448975
-0.43927785959116106
-0.48492173216092976
-0.5324585392875614
-0.5760860229154411
-0.6192765308481069
-0.6721763756066036
-0.6721763756066036
-0.6192765308481069
-0.5760860229154411
-0.5324585392875614
-0.48492173216093004
-0.43927785959116156
-0.403166129448975
-0.36411331390652624
-0.32033432971368575
-0.27643392250167154
-0.24790037364817194
-0.21905682975171634
-0.24790037364817016
-0.283415383122597
-0.3310377550161807
-0.3735644761176159
-0.41172179974820944
-0.45536089181625133
-0.5055587991213513
-0.5513190628912715
-0.5963061503691248
-0.6510750212014044
-0.6510750212014044
-0.5963061503691253
-0.5513190628912715
-0.5055587991213513
-0.45536089181625133
-0.41172179974820944
-0.3735644761176159
-0.3310377550161807
-0.2834153831225974
-0.24790037364817016
-0.21905682975171634
-0.18578803531671204
-0.2190568297517181
-0.24924681151727443
-0.2942677099654568
-0.3414057815843045
-0.38278235365552826
-0.424963511604709
-0.477144949336994
-0.5253858700194454
-0.5724147345035984
-0.6292664670401473
-0.6292664670401478
-0.5724147345035986
-0.5253858700194454
-0.477144949336994
-0.424963511604709
-0.38278235365552826
-0.3414057815843045
-0.2942677099654564
-0.24924681151727443
-0.2190568297517181
-0.18578803531671204
-0.14508098935702665
-0.18578803531671054
-0.21905682975171686
-0.25523118693464286
-0.30588461481635626
-0.35146809265170365
-0.39376340571012913
-0.4469283007223666
-0.4981043221302833
-0.5474817180377849
-0.6066744512916036
-0.6066744512916038
-0.547481718037785
-0.4981043221302833
-0.4469283007223666
-0.39376340571012935
-0.35146809265170387
-0.30588461481635626
-0.25523118693464264
-0.21905682975171736
-0.18578803531671054
-0.14508098935702665
-0.08789896439392471
-0.14508098935702893
-0.18578803531671204
-0.2194489497044503
-0.26569215773004445
-0.31707618963647816
-0.3615528208143237
-0.4145147877885202
-0.46923929826224997
-0.5213576842191785
-0.5832079330382502
-0.5832079330382506
-0.5213576842191785
-0.46923929826224997
-0.4145147877885203
-0.3615528208143239
-0.31707618963647816
-0.26569215773004445
-0.2194489497044503
-0.18578803531671204
-0.14508098935702818
-0.08789896439392471
-0.020555461423777836
-0.08789896439392156
-0.14508098935702798
-0.18578803531671098
-0.224248181956055
-0.2784686695421026
-0.3278859900749414
-0.37976224925493157
-0.4384781891296627
-0.49385366071657705
-0.5587567417647217
-0.5587567417647218
-0.49385366071657705
-0.4384781891296627
-0.37976224925493157
-0.3278859900749418
-0.2784686695421026
-0.224248181956055
-0.18578803531671068
-0.1450809893570272
-0.08789896439392156
-0.020555461423769735
0.04678804154636033
-0.020555461423776487
-0.08789896439392345
-0.1450809893570278
-0.18578837136439844
-0.23419442960379444
-0.29071758180334706
-0.3431988043275642
-0.4053895973643232
-0.4647246943212119
-0.5331854271979942
-0.5331854271979944
-0.4647246943212119
-0.4053895973643232
-0.34319880432756433
-0.2907175818033471
-0.2341944296037945
-0.18578837136439844
-0.14508098935702837
-0.08789896439392282
-0.020555461423776487
0.04678804154636982
0.11413154451651299
0.04678804154635677
-0.020555461423777836
-0.08789896439392329
-0.14508098935702837
-0.1890955958506601
-0.24804072700213325
-0.3042476979467467
-0.3693485196396321
-0.4336434535660874
-0.5063243062357241
-0.5063243062357243
-0.4336434535660875
-0.3693485196396321
-0.3042476979467468
-0.2480407270021334
-0.18909559585066021
-0.14508098935702837
-0.0878989643939236
-0.020555461423777836
0.046788041546371006
0.1141315445165193
0.1814750474866666
0.11413154451651833
0.046788041546368044
-0.02055546142377581
-0.08789896439392321
-0.14508098935702818
-0.19856320900065355
-0.26184555218914884
-0.32938720720265885
-0.4001552800220223
-0.4779559670030984
-0.4779559670030986
-0.4001552800220224
-0.32938720720265885
-0.26184555218914896
-0.1985632090006537
-0.14508098935702832
-0.08789896439392321
-0.020555461423776487
0.0467880415463716
0.11413154451651882
0.1814750474866666
0.24881855045681336
0.1814750474866652
0.11413154451651664
0.04678804154637427
-0.020555461423776487
-0.08789896439392321
-0.1468082101335859
-0.2133157391918016
-0.2849077688889533
-0.3635957252750405
-0.4477940483108798
-0.44779404831088
-0.36359572527504064
-0.2849077688889533
-0.21331573919180166
-0.14680821013358597
-0.08789896439392333
-0.020555461423776487
0.0467880415463716
0.1141315445165187
0.18147504748666637
0.2488185504568136
0.31616205342696047
0.2488185504568127
0.18147504748666468
0.1141315445165193
0.04678804154637138
-0.020555461423776063
-0.0878989643939234
-0.15599126261691323
-0.2346574078075888
-0.3229232954542958
-0.41544808702342856
-0.4154480870234288
-0.32292329545429593
-0.2346574078075888
-0.1559912626169133
-0.08789896439392354
-0.020555461423776022
0.04678804154637138
0.11413154451651882
0.18147504748666599
0.2488185504568136
0.31616205342696113
0.38350555639710887
0.31616205342696013
0.2488185504568126
0.18147504748666615
0.1141315445165185
0.04678804154637085
-0.02055546142377596
-0.08789896439392338
-0.17369787098865963
-0.27632780905265775
-0.38036129708502925
-0.3803612970850296
-0.27632780905265786
-0.17369787098865963
-0.08789896439392345
-0.020555461423776122
0.04678804154637137
0.11413154451651883
0.1814750474866662
0.2488185504568135
0.316162053426961
0.3835055563971084
0.4508490593672569
0.3835055563971084
0.316162053426961
0.24881855045681409
0.18147504748666646
0.11413154451651883
0.04678804154637116
-0.02055546142377598
-0.09779984146199386
-0.22007876173002633
-0.34169038562562093
-0.3416903856256212
-0.22007876173002647
-0.09779984146199386
-0.020555461423775727
0.0467880415463713
0.1141315445165188
0.1814750474866663
0.24881855045681356
0.31616205342696097
0.3835055563971084
0.4508490593672559
0.5181925623374039
0.45084905936725617
0.38350555639710865
0.3161620534269611
0.24881855045681353
0.18147504748666604
0.11413154451651876
0.04678804154637227
-0.02055546142377581
-0.14322103432597255
-0.29804349168831923
-0.29804349168831956
-0.14322103432597263
-0.02055546142377581
0.04678804154637116
0.11413154451651855
0.18147504748666607
0.24881855045681353
0.3161620534269609
0.38350555639710826
0.45084905936725567
0.5181925623374032
0.5855360653075503
0.5181925623374032
0.4508490593672557
0.38350555639710815
0.3161620534269608
0.24881855045681342
0.18147504748666626
0.11413154451651968
0.04678804154637575
-0.02055546142377716
-0.2467945020589902
-0.24679450205899064
-0.020555461423776487
0.04678804154637116
0.11413154451651845
0.18147504748666585
0.24881855045681334
0.31616205342696085
0.38350555639710815
0.4508490593672555
0.5181925623374031
0.5855360653075504
0.6528795682776979
0.5855360653075504
0.5181925623374031
0.45084905936725544
0.3835055563971078
0.3161620534269611
0.24881855045681397
0.18147504748666748
0.11413154451652234
0.04678804154637012
-0.18161808708199884
-0.18161808708199945
0.046788041546371305
0.1141315445165187
0.181475047486666
0.24881855045681328
0.3161620534269608
0.38350555639710826
0.4508490593672556
0.518192562337403
0.5855360653075504
0.652879568277698
0.7202230712478452
0.652879568277698
0.5855360653075508
0.5181925623374032
0.45084905936725533
0.3835055563971078
0.3161620534269619
0.24881855045681542
0.18147504748666957
0.11413154451651979
-0.07115288373709243
-0.07115288373709437
0.11413154451651907
0.18147504748666615
0.24881855045681336
0.31616205342696074
0.38350555639710815
0.4508490593672557
0.518192562337403
0.5855360653075503
0.6528795682776978
0.7202230712478453
0.7875665742179926
0.7202230712478453
0.6528795682776981
0.5855360653075505
0.5181925623374027
0.4508490593672552
0.3835055563971079
0.3161620534269627
0.24881855045681672
0.1814750474866675
0.11413154451652247
0.11413154451651858
0.18147504748666599
0.24881855045681325
0.31616205342696074
0.38350555639710815
0.4508490593672555
0.518192562337403
0.5855360653075503
0.6528795682776978
0.7202230712478452
0.7875665742179926
0.8549100771881399
0.7875665742179928
0.7202230712478456
0.652879568277698
0.5855360653075508
0.5181925623374037
0.4508490593672554
0.38350555639710826
0.3161620534269638
0.24881855045681547
0.1814750474866695
0.18147504748666676
0.24881855045681336
0.3161620534269606
0.3835055563971081
0.45084905936725533
0.5181925623374027
0.5855360653075503
0.6528795682776976
0.7202230712478449
0.7875665742179924
0.8549100771881398
0.9222535801582872
0.85491007718814
0.7875665742179927
0.720223071247845
0.6528795682776977
0.5855360653075504
0.518192562337402
0.4508490593672545
0.3835055563971073
0.31616205342696035
0.2488185504568127
0.2488185504568136
0.3161620534269609
0.3835055563971081
0.45084905936725533
0.5181925623374029
0.5855360653075503
0.6528795682776978
0.7202230712478451
0.7875665742179924
0.8549100771881398
0.9222535801582874
0.9895970831284346
0.9222535801582872
0.8549100771881404
0.7875665742179925
0.7202230712478455
0.6528795682776981
0.5855360653075511
0.5181925623374025
0.4508490593672554
0.38350555639710526
0.3161620534269611
0.3161620534269609
0.38350555639710804
0.4508490593672556
0.5181925623374029
0.5855360653075503
0.6528795682776978
0.7202230712478452
0.7875665742179925
0.8549100771881398
0.9222535801582873
0.9895970831284348

