# vtk DataFile Version 4.1
Header:
ASCII

DATASET UNSTRUCTURED_GRID
POINTS 2 double
-9.04344916085174 5.075881904510251 0.0
9.04344916085174 5.075881904510251 0.0


POINT_DATA 2
VECTORS normals double
0.4999999999999997 0.8660254037844387 0.0
-0.4999999999999997 0.8660254037844387 0.0

