# vtk DataFile Version 4.1
Header:
ASCII

DATASET UNSTRUCTURED_GRID
POINTS 2 double
-5.50390580112601 8.893449160851738 0.0
5.50390580112601 8.893449160851738 0.0


POINT_DATA 2
VECTORS normals double
0.8660254037844384 0.5000000000000002 0.0
-0.8660254037844384 0.5000000000000002 0.0

