# vtk DataFile Version 4.1
Header:
ASCII

DATASET UNSTRUCTURED_GRID
POINTS 484 double
-1 -1 0
-0.9047619047619048 -1 0
-0.8095238095238095 -1 0
-0.7142857142857143 -1 0
-0.6190476190476191 -1 0
-0.5238095238095238 -1 0
-0.4285714285714286 -1 0
-0.33333333333333337 -1 0
-0.23809523809523814 -1 0
-0.1428571428571429 -1 0
-0.04761904761904767 -1 0
0.04761904761904745 -1 0
0.1428571428571428 -1 0
0.23809523809523814 -1 0
0.33333333333333326 -1 0
0.4285714285714284 -1 0
0.5238095238095237 -1 0
0.6190476190476191 -1 0
0.7142857142857142 -1 0
0.8095238095238093 -1 0
0.9047619047619047 -1 0
1 -1 0
-1 -0.9047619047619048 0
-0.9047619047619048 -0.9047619047619048 0
-0.8095238095238095 -0.9047619047619048 0
-0.7142857142857143 -0.9047619047619048 0
-0.6190476190476191 -0.9047619047619048 0
-0.5238095238095238 -0.9047619047619048 0
-0.4285714285714286 -0.9047619047619048 0
-0.33333333333333337 -0.9047619047619048 0
-0.23809523809523814 -0.9047619047619048 0
-0.1428571428571429 -0.9047619047619048 0
-0.04761904761904767 -0.9047619047619048 0
0.04761904761904745 -0.9047619047619048 0
0.1428571428571428 -0.9047619047619048 0
0.23809523809523814 -0.9047619047619048 0
0.33333333333333326 -0.9047619047619048 0
0.4285714285714284 -0.9047619047619048 0
0.5238095238095237 -0.9047619047619048 0
0.6190476190476191 -0.9047619047619048 0
0.7142857142857142 -0.9047619047619048 0
0.8095238095238093 -0.9047619047619048 0
0.9047619047619047 -0.9047619047619048 0
1 -0.9047619047619048 0
-1 -0.8095238095238095 0
-0.9047619047619048 -0.8095238095238095 0
-0.8095238095238095 -0.8095238095238095 0
-0.7142857142857143 -0.8095238095238095 0
-0.6190476190476191 -0.8095238095238095 0
-0.5238095238095238 -0.8095238095238095 0
-0.4285714285714286 -0.8095238095238095 0
-0.33333333333333337 -0.8095238095238095 0
-0.23809523809523814 -0.8095238095238095 0
-0.1428571428571429 -0.8095238095238095 0
-0.04761904761904767 -0.8095238095238095 0
0.04761904761904745 -0.8095238095238095 0
0.1428571428571428 -0.8095238095238095 0
0.23809523809523814 -0.8095238095238095 0
0.33333333333333326 -0.8095238095238095 0
0.4285714285714284 -0.8095238095238095 0
0.5238095238095237 -0.8095238095238095 0
0.6190476190476191 -0.8095238095238095 0
0.7142857142857142 -0.8095238095238095 0
0.8095238095238093 -0.8095238095238095 0
0.9047619047619047 -0.8095238095238095 0
1 -0.8095238095238095 0
-1 -0.7142857142857143 0
-0.9047619047619048 -0.7142857142857143 0
-0.8095238095238095 -0.7142857142857143 0
-0.7142857142857143 -0.7142857142857143 0
-0.6190476190476191 -0.7142857142857143 0
-0.5238095238095238 -0.7142857142857143 0
-0.4285714285714286 -0.7142857142857143 0
-0.33333333333333337 -0.7142857142857143 0
-0.23809523809523814 -0.7142857142857143 0
-0.1428571428571429 -0.7142857142857143 0
-0.04761904761904767 -0.7142857142857143 0
0.04761904761904745 -0.7142857142857143 0
0.1428571428571428 -0.7142857142857143 0
0.23809523809523814 -0.7142857142857143 0
0.33333333333333326 -0.7142857142857143 0
0.4285714285714284 -0.7142857142857143 0
0.5238095238095237 -0.7142857142857143 0
0.6190476190476191 -0.7142857142857143 0
0.7142857142857142 -0.7142857142857143 0
0.8095238095238093 -0.7142857142857143 0
0.9047619047619047 -0.7142857142857143 0
1 -0.7142857142857143 0
-1 -0.6190476190476191 0
-0.9047619047619048 -0.6190476190476191 0
-0.8095238095238095 -0.6190476190476191 0
-0.7142857142857143 -0.6190476190476191 0
-0.6190476190476191 -0.6190476190476191 0
-0.5238095238095238 -0.6190476190476191 0
-0.4285714285714286 -0.6190476190476191 0
-0.33333333333333337 -0.6190476190476191 0
-0.23809523809523814 -0.6190476190476191 0
-0.1428571428571429 -0.6190476190476191 0
-0.04761904761904767 -0.6190476190476191 0
0.04761904761904745 -0.6190476190476191 0
0.1428571428571428 -0.6190476190476191 0
0.23809523809523814 -0.6190476190476191 0
0.33333333333333326 -0.6190476190476191 0
0.4285714285714284 -0.6190476190476191 0
0.5238095238095237 -0.6190476190476191 0
0.6190476190476191 -0.6190476190476191 0
0.7142857142857142 -0.6190476190476191 0
0.8095238095238093 -0.6190476190476191 0
0.9047619047619047 -0.6190476190476191 0
1 -0.6190476190476191 0
-1 -0.5238095238095238 0
-0.9047619047619048 -0.5238095238095238 0
-0.8095238095238095 -0.5238095238095238 0
-0.7142857142857143 -0.5238095238095238 0
-0.6190476190476191 -0.5238095238095238 0
-0.5238095238095238 -0.5238095238095238 0
-0.4285714285714286 -0.5238095238095238 0
-0.33333333333333337 -0.5238095238095238 0
-0.23809523809523814 -0.5238095238095238 0
-0.1428571428571429 -0.5238095238095238 0
-0.04761904761904767 -0.5238095238095238 0
0.04761904761904745 -0.5238095238095238 0
0.1428571428571428 -0.5238095238095238 0
0.23809523809523814 -0.5238095238095238 0
0.33333333333333326 -0.5238095238095238 0
0.4285714285714284 -0.5238095238095238 0
0.5238095238095237 -0.5238095238095238 0
0.6190476190476191 -0.5238095238095238 0
0.7142857142857142 -0.5238095238095238 0
0.8095238095238093 -0.5238095238095238 0
0.9047619047619047 -0.5238095238095238 0
1 -0.5238095238095238 0
-1 -0.4285714285714286 0
-0.9047619047619048 -0.4285714285714286 0
-0.8095238095238095 -0.4285714285714286 0
-0.7142857142857143 -0.4285714285714286 0
-0.6190476190476191 -0.4285714285714286 0
-0.5238095238095238 -0.4285714285714286 0
-0.4285714285714286 -0.4285714285714286 0
-0.33333333333333337 -0.4285714285714286 0
-0.23809523809523814 -0.4285714285714286 0
-0.1428571428571429 -0.4285714285714286 0
-0.04761904761904767 -0.4285714285714286 0
0.04761904761904745 -0.4285714285714286 0
0.1428571428571428 -0.4285714285714286 0
0.23809523809523814 -0.4285714285714286 0
0.33333333333333326 -0.4285714285714286 0
0.4285714285714284 -0.4285714285714286 0
0.5238095238095237 -0.4285714285714286 0
0.6190476190476191 -0.4285714285714286 0
0.7142857142857142 -0.4285714285714286 0
0.8095238095238093 -0.4285714285714286 0
0.9047619047619047 -0.4285714285714286 0
1 -0.4285714285714286 0
-1 -0.33333333333333337 0
-0.9047619047619048 -0.33333333333333337 0
-0.8095238095238095 -0.33333333333333337 0
-0.7142857142857143 -0.33333333333333337 0
-0.6190476190476191 -0.33333333333333337 0
-0.5238095238095238 -0.33333333333333337 0
-0.4285714285714286 -0.33333333333333337 0
-0.33333333333333337 -0.33333333333333337 0
-0.23809523809523814 -0.33333333333333337 0
-0.1428571428571429 -0.33333333333333337 0
-0.04761904761904767 -0.33333333333333337 0
0.04761904761904745 -0.33333333333333337 0
0.1428571428571428 -0.33333333333333337 0
0.23809523809523814 -0.33333333333333337 0
0.33333333333333326 -0.33333333333333337 0
0.4285714285714284 -0.33333333333333337 0
0.5238095238095237 -0.33333333333333337 0
0.6190476190476191 -0.33333333333333337 0
0.7142857142857142 -0.33333333333333337 0
0.8095238095238093 -0.33333333333333337 0
0.9047619047619047 -0.33333333333333337 0
1 -0.33333333333333337 0
-1 -0.23809523809523814 0
-0.9047619047619048 -0.23809523809523814 0
-0.8095238095238095 -0.23809523809523814 0
-0.7142857142857143 -0.23809523809523814 0
-0.6190476190476191 -0.23809523809523814 0
-0.5238095238095238 -0.23809523809523814 0
-0.4285714285714286 -0.23809523809523814 0
-0.33333333333333337 -0.23809523809523814 0
-0.23809523809523814 -0.23809523809523814 0
-0.1428571428571429 -0.23809523809523814 0
-0.04761904761904767 -0.23809523809523814 0
0.04761904761904745 -0.23809523809523814 0
0.1428571428571428 -0.23809523809523814 0
0.23809523809523814 -0.23809523809523814 0
0.33333333333333326 -0.23809523809523814 0
0.4285714285714284 -0.23809523809523814 0
0.5238095238095237 -0.23809523809523814 0
0.6190476190476191 -0.23809523809523814 0
0.7142857142857142 -0.23809523809523814 0
0.8095238095238093 -0.23809523809523814 0
0.9047619047619047 -0.23809523809523814 0
1 -0.23809523809523814 0
-1 -0.1428571428571429 0
-0.9047619047619048 -0.1428571428571429 0
-0.8095238095238095 -0.1428571428571429 0
-0.7142857142857143 -0.1428571428571429 0
-0.6190476190476191 -0.1428571428571429 0
-0.5238095238095238 -0.1428571428571429 0
-0.4285714285714286 -0.1428571428571429 0
-0.33333333333333337 -0.1428571428571429 0
-0.23809523809523814 -0.1428571428571429 0
-0.1428571428571429 -0.1428571428571429 0
-0.04761904761904767 -0.1428571428571429 0
0.04761904761904745 -0.1428571428571429 0
0.1428571428571428 -0.1428571428571429 0
0.23809523809523814 -0.1428571428571429 0
0.33333333333333326 -0.1428571428571429 0
0.4285714285714284 -0.1428571428571429 0
0.5238095238095237 -0.1428571428571429 0
0.6190476190476191 -0.1428571428571429 0
0.7142857142857142 -0.1428571428571429 0
0.8095238095238093 -0.1428571428571429 0
0.9047619047619047 -0.1428571428571429 0
1 -0.1428571428571429 0
-1 -0.04761904761904767 0
-0.9047619047619048 -0.04761904761904767 0
-0.8095238095238095 -0.04761904761904767 0
-0.7142857142857143 -0.04761904761904767 0
-0.6190476190476191 -0.04761904761904767 0
-0.5238095238095238 -0.04761904761904767 0
-0.4285714285714286 -0.04761904761904767 0
-0.33333333333333337 -0.04761904761904767 0
-0.23809523809523814 -0.04761904761904767 0
-0.1428571428571429 -0.04761904761904767 0
-0.04761904761904767 -0.04761904761904767 0
0.04761904761904745 -0.04761904761904767 0
0.1428571428571428 -0.04761904761904767 0
0.23809523809523814 -0.04761904761904767 0
0.33333333333333326 -0.04761904761904767 0
0.4285714285714284 -0.04761904761904767 0
0.5238095238095237 -0.04761904761904767 0
0.6190476190476191 -0.04761904761904767 0
0.7142857142857142 -0.04761904761904767 0
0.8095238095238093 -0.04761904761904767 0
0.9047619047619047 -0.04761904761904767 0
1 -0.04761904761904767 0
-1 0.04761904761904745 0
-0.9047619047619048 0.04761904761904745 0
-0.8095238095238095 0.04761904761904745 0
-0.7142857142857143 0.04761904761904745 0
-0.6190476190476191 0.04761904761904745 0
-0.5238095238095238 0.04761904761904745 0
-0.4285714285714286 0.04761904761904745 0
-0.33333333333333337 0.04761904761904745 0
-0.23809523809523814 0.04761904761904745 0
-0.1428571428571429 0.04761904761904745 0
-0.04761904761904767 0.04761904761904745 0
[...]
POINT_DATA 484
SCALARS phi double 1
LOOKUP_TABLE default
-1.1729810623710846
-1.148331629504178
-1.1236821966372708
-1.0990327637703634
-1.0743833309034572
-1.0497338980365511
-1.0257898897723567
-1.0088497300281039
-1.0007253605088324
-1
-1
-1
-1
-1.0007253605088324
-1.0088497300281036
-1.0257898897723567
-1.0497338980365511
-1.0743833309034578
-1.0990327637703645
-1.1236821966372712
-1.1483316295041779
-1.1729810623710848
-1.0809881265340302
-1.056338693667124
-1.0316892608002175
-1.007039827933311
-0.9823903950664047
-0.9577409621994971
-0.9331875493530621
-0.9145336965285467
-0.9055635546298907
-0.9047619047619048
-0.9047619047619048
-0.9047619047619048
-0.9047619047619048
-0.9055635546298907
-0.9145336965285467
-0.933187549353062
-0.9577409621994969
-0.9823903950664037
-1.0070398279333104
-1.031689260800217
-1.056338693667124
-1.0809881265340306
-0.9889951906969761
-0.9643457578300687
-0.9396963249631632
-0.9150468920962558
-0.8903974592293487
-0.8657480263624431
-0.8410985934955361
-0.8204307258774008
-0.8104196723620879
-0.8095238095238095
-0.8095238095238095
-0.8095238095238095
-0.8095238095238095
-0.8104196723620879
-0.8204307258774008
-0.8410985934955361
-0.8657480263624429
-0.8903974592293497
-0.9150468920962563
-0.939696324963163
-0.9643457578300698
-0.9889951906969766
-0.8970022548599218
-0.8723528219930153
-0.847703389126109
-0.8230539562592025
-0.7984045233922952
-0.7737550905253888
-0.749105657658482
-0.7266236022938085
-0.7153008659285867
-0.7142857142857143
-0.7142857142857143
-0.7142857142857143
-0.7142857142857143
-0.7153008659285867
-0.7266236022938085
-0.749105657658482
-0.7737550905253887
-0.7984045233922956
-0.8230539562592022
-0.8477033891261089
-0.8723528219930157
-0.8970022548599224
-0.8050093190228674
-0.7803598861559602
-0.7557104532890537
-0.7310610204221474
-0.7064115875552409
-0.6817621546883346
-0.657112721821428
-0.6332438175192111
-0.6202186725777119
-0.6190476190476191
-0.6190476190476191
-0.6190476190476191
-0.6190476190476191
-0.6202186725777119
-0.6332438175192111
-0.6571127218214279
-0.6817621546883347
-0.7064115875552414
-0.7310610204221482
-0.7557104532890548
-0.7803598861559615
-0.8050093190228683
-0.7130163831858141
-0.6883669503189068
-0.6637175174520002
-0.6390680845850939
-0.6144186517181875
-0.5897692188512802
-0.5651197859843738
-0.5405128999490557
-0.5251929782461805
-0.5238095238095238
-0.5238095238095238
-0.5238095238095238
-0.5238095238095238
-0.5251929782461805
-0.5405128999490557
-0.5651197859843738
-0.5897692188512805
-0.6144186517181873
-0.639068084585094
-0.6637175174520007
-0.6883669503189075
-0.7130163831858143
-0.6210234473487599
-0.5963740144818535
-0.571724581614947
-0.5470751487480396
-0.5224257158811333
-0.4977762830142269
-0.4731268501473187
-0.44847741728041296
-0.43026121897434355
-0.4285714285714286
-0.4285714285714286
-0.4285714285714286
-0.4285714285714286
-0.43026121897434355
-0.44847741728041296
-0.47312685014731964
-0.49777628301422644
-0.5224257158811332
-0.5470751487480399
-0.5717245816149465
-0.5963740144818533
-0.6210234473487602
-0.5290305115117055
-0.5043810786447983
-0.47973164577789185
-0.4550822129109855
-0.43043278004407814
-0.40578334717717174
-0.3811339143102645
-0.35648448144335887
-0.3355031419773055
-0.33333333333333337
-0.33333333333333337
-0.33333333333333337
-0.33333333333333337
-0.3355031419773055
-0.3564844814433588
-0.38113391431026555
-0.4057833471771723
-0.4304327800440791
-0.4550822129109858
-0.4797316457778925
-0.5043810786447993
-0.529030511511706
-0.4370375756746513
-0.41238814280774483
-0.3877387099408384
-0.363089277073932
-0.3384398442070247
-0.31379041134011826
-0.28914097847321013
-0.2644915456063048
-0.24112359811756504
-0.23809523809523814
-0.23809523809523814
-0.23809523809523814
-0.23809523809523814
-0.24112359811756504
-0.2644915456063047
-0.2891409784732114
-0.3137904113401182
-0.33843984420702494
-0.3630892770739316
-0.38773870994083837
-0.4123881428077451
-0.4370375756746519
-0.34504463983759787
-0.3203952069706906
-0.2957457741037841
-0.27109634123687776
-0.2464469083699713
-0.2217974755030649
-0.19714804263615676
-0.17249860976925063
-0.1478492828215241
-0.1428571428571429
-0.1428571428571429
-0.1428571428571429
-0.1428571428571429
-0.1478492828215241
-0.1724986097692506
-0.19714804263615732
-0.22179747550306408
-0.24644690836997085
-0.27109634123687754
-0.2957457741037843
-0.32039520697069107
-0.34504463983759776
-0.2530517040005436
-0.22840227113363634
-0.20375283826672902
-0.17910340539982264
-0.15445397253291615
-0.12980453966600888
-0.10515510679910253
-0.08050567393219606
-0.05585624106528981
-0.04761904761904767
-0.04761904761904767
-0.04761904761904767
-0.04761904761904767
-0.05585624106528981
-0.08050567393219651
-0.10515510679910323
-0.12980453966601
-0.15445397253291676
-0.17910340539982345
-0.20375283826673016
-0.22840227113363695
-0.2530517040005437
-0.16105876816348924
-0.13640933529658197
-0.1117599024296756
-0.08711046956276917
-0.06246103669586276
-0.037811603828956354
-0.013162170962048168
0.011487261904858239
0.036136694771764205
0.04761904761904745
0.04761904761904745
0.04761904761904745
0.04761904761904745
0.036136694771764205
0.011487261904857495
-0.013162170962049212
-0.03781160382895598
-0.06246103669586274
-0.08711046956276945
-0.11175990242967615
-0.1364093352965829
-0.1610587681634897
-0.06906583232643503
-0.044416399459528605
-0.019766966592622198
0.004882466274284209
0.02953189914119154
0.054181332008097945
0.0788307648750052
0.10348019774191163
0.1281296306088184
0.1428571428571428
0.1428571428571428
0.1428571428571428
0.1428571428571428
0.1281296306088184
0.10348019774191171
0.078830764875005
0.05418133200809825
0.02953189914119148
0.004882466274284773
-0.019766966592621935
-0.04441639945952871
-0.06906583232643546
0.022927103510619225
0.04757653637752563
0.07222596924443296
0.09687540211133847
0.12152483497824577
0.14617426784515306
0.17082370071206032
0.19547313357896676
0.22012256644587264
0.23809523809523814
0.23809523809523814
0.23809523809523814
0.23809523809523814
0.22012256644587264
0.19547313357896592
0.1708237007120592
0.14617426784515244
0.12152483497824572
0.096875402111339
0.07222596924443231
0.04757653637752551
0.022927103510618763
0.11492003934767266
0.13956947221457994
0.1642189050814864
0.18886833794839283
0.2135177708152992
0.23816720368220648
0.26281663654911375
0.28746606941602104
0.3121155022829275
0.33333333333333326
0.33333333333333326
0.33333333333333326
0.33333333333333326
0.3121155022829266
0.28746606941601993
0.26281663654911325
0.23816720368220645
0.21351777081529968
0.18886833794839297
0.16421890508148632
0.13956947221457955
0.11492003934767275
0.20691297518472776
0.2315624080516342
0.25621184091854066
0.28086127378544795
0.3055107066523544
0.3301601395192607
0.3548095723861689
0.37945900525307535
0.40410843811998176
0.4285714285714284
0.4285714285714284
0.4285714285714284
0.4285714285714284
0.40410843811998065
0.37945900525307397
0.3548095723861672
0.3301601395192605
0.3055107066523537
0.280861273785447
0.25621184091854027
0.23156240805163356
0.20691297518472682
0.2989059110217812
0.32355534388868756
0.34820477675559486
0.37285420962250126
0.39750364248940867
0.4221530753563151
0.44680250822322226
0.47145194109012867
0.49610137395703513
0.5207508068239416
0.5238095238095237
0.5238095238095237
0.5207508068239416
0.49610137395703485
0.47145194109012817
0.4468025082232215
0.4221530753563147
0.3975036424894079
0.37285420962250126
0.3482047767555945
0.3235553438886878
0.29890591102178093
0.39089884685883547
0.41554827972574193
0.44019771259264834
0.46484714545955563
0.4894965783264621
0.5141460111933683
0.5387954440602767
0.563444876927183
0.5880943097940895
0.6127437426609958
0.6190476190476191
0.6190476190476191
0.6127437426609958
0.5880943097940892
0.5634448769271824
0.5387954440602757
0.5141460111933689
0.4894965783264622
0.4648471454595554
0.4401977125926488
0.415548279725742
0.39089884685883525
0.4828917826958897
0.507541215562797
0.5321906484297027
0.5568400812966098
0.5814895141635162
0.6061389470304227
0.6307883798973308
0.6554378127642373
0.6800872456311446
0.7047366784980501
0.7142857142857142
0.7142857142857142
0.7047366784980499
0.6800872456311431
0.6554378127642363
0.6307883798973297
0.6061389470304229
0.5814895141635161
0.5568400812966094
0.5321906484297028
0.507541215562796
0.48289178269588917
0.5748847185329431
0.5995341513998503
0.6241835842667578
0.6488330171336634
0.6734824500005706
0.6981318828674768
0.7227813157343841
0.7474307486012916
0.772080181468198
0.7967296143351044
0.8095238095238093
0.8095238095238093
0.7967296143351038
0.772080181468197
0.7474307486012904
0.7227813157343838
0.6981318828674768
0.6734824500005702
0.6488330171336635
0.6241835842667567
0.59953415139985
0.5748847185329431
0.6668776543699982
0.6915270872369056
0.7161765201038122
0.7408259529707185
0.7654753858376249
0.7901248187045313
0.8147742515714386
0.8394236844383459
0.8640731173052532
0.8887225501721586
0.9047619047619047
0.9047619047619047
0.8887225501721581
0.8640731173052514
0.8394236844383446
0.8147742515714379
0.7901248187045311
0.7654753858376244
0.7408259529707177
0.7161765201038109
0.6915270872369043
0.6668776543699975
0.7588705902070526
0.7835200230739591
0.8081694559408654
0.8328188888077719
0.8574683216746791
0.8821177545415856
0.9067671874084937
0.9314166202753992
0.9560660531423065
0.9807154860092139
1
1
0.9807154860092123
0.9560660531423055
0.9314166202753987
0.906767187408492
0.8821177545415854
0.8574683216746786
0.8328188888077719
0.8081694559408652
0.7835200230739584
0.7588705902070516

SCALARS psi double 1
LOOKUP_TABLE default
0.413921615928735
0.32192868009167996
0.22993574425462862
0.13794280841758194
0.04594987258053884
-0.04604306325653663
-0.13269212417742873
-0.18975190904475506
-0.23324745261961702
-0.27580476327177467
-0.338262476690643
-0.338262476690643
-0.27580476327177467
-0.23324745261961702
-0.18975190904475622
-0.13269212417742873
-0.04604306325653663
0.04594987258052435
0.1379428084175731
0.2299357442546262
0.32192868009168096
0.41392161592873417
0.43857104879564185
0.3465781129585868
0.25458517712153117
0.16259224128447458
0.0705993054474134
-0.02139363038962944
-0.11259357550649468
-0.17628357953237636
-0.22242861232350167
-0.266717792563635
-0.33089517458480117
-0.3308951745848015
-0.2667177925636354
-0.22242861232350167
-0.17628357953237636
-0.11259357550649567
-0.02139363038963982
0.07059930544742754
0.16259224128447866
0.2545851771215329
0.34657811295858615
0.43857104879564085
0.46322048166254826
0.3712275458254962
0.2792346099884385
0.18724167415138768
0.09524873831434047
0.003255802477246185
-0.08873713335977877
-0.16169729076074937
-0.2110559191465076
-0.2573101130865959
-0.32336006245379884
-0.3233600624537992
-0.25731011308659635
-0.2110559191465076
-0.16169729076074937
-0.08873713335977877
0.003255802477297335
0.09524873831433114
0.187241674151385
0.2792346099884389
0.3712275458254928
0.4632204816625471
0.4878699145294555
0.39587697869240107
0.30388404285534587
0.21189110701829053
0.11989817118124045
0.027905235344183828
-0.06408770049287106
-0.14565756851597167
-0.1990344553925175
-0.24754516299708917
-0.31564512259298966
-0.3156451225929898
-0.24754516299708962
-0.1990344553925175
-0.14565756851597167
-0.06408770049287106
0.027905235344187804
0.11989817118123768
0.21189110701829184
0.30388404285534565
0.39587697869239996
0.48786991452945444
0.5125193473963623
0.42052641155930953
0.32853347572225505
0.2365405398852009
0.14454760404814718
0.05255466821109305
-0.03943826762596431
-0.12761755636511635
-0.18623863149200404
-0.237378855734613
-0.3077368304954124
-0.30773683049541267
-0.237378855734613
-0.18623863149200404
-0.1276175563651157
-0.03943826762596431
0.052554668211090415
0.14454760404814507
0.23654053988519855
0.3285334757222524
0.42052641155930676
0.5125193473963608
0.5371687802632676
0.44517584442621455
0.35318290858916035
0.2611899727521055
0.16919703691505014
0.07720410107800037
-0.014788834759057642
-0.10656619594985228
-0.1724962065862117
-0.22675721504837035
-0.2996198762932474
-0.29961987629324766
-0.22675721504837035
-0.1724962065862117
-0.10656619594985176
-0.014788834759057642
0.07720410107799786
0.16919703691505097
0.2611899727521052
0.3531829085891591
0.44517584442621333
0.5371687802632673
0.5618182131301745
0.46982527729312007
0.3778323414560655
0.2858394056190125
0.1938464697819578
0.10185353394490183
0.00986059810790172
-0.08213233772920488
-0.15755968619304786
-0.21561295880144019
-0.29127681627036406
-0.2912768162703642
-0.2156129588014403
-0.15755968619304786
-0.08213233772920488
0.009860598107851054
0.10185353394490401
0.1938464697819581
0.285839405619012
0.3778323414560659
0.46982527729311996
0.5618182131301741
0.5864676459970815
0.49447471016002803
0.4024817743229735
0.3104888384859192
0.21849590264886648
0.1265029668118124
0.034510030974768686
-0.05748290486229777
-0.14105023268279415
-0.20386039691350102
-0.282687631712493
-0.2826876317124933
-0.20386039691350108
-0.14105023268279415
-0.05748290486229801
0.034510030974756224
0.12650296681181053
0.21849590264886465
0.31048883848591874
0.4024817743229726
0.4944747101600267
0.5864676459970811
0.6111170788639881
0.519124143026934
0.4271312071898795
0.3351382713528251
0.24314533551577155
0.15115239967871713
0.05915946384166966
-0.0328334719953906
-0.12233266761780785
-0.19138749921650797
-0.27382916307405375
-0.273829163074054
-0.19138749921650808
-0.12233266761780785
-0.03283347199539123
0.05915946384166286
0.15115239967871713
0.24314533551577122
0.33513827135282537
0.4271312071898793
0.5191241430269335
0.6111170788639877
0.6357665117308945
0.5437735758938407
0.45178064005678636
0.359787704219732
0.2677947683826776
0.1758018325456229
0.08380889670857124
-0.008184039128484729
-0.10017681864137876
-0.17804293943587737
-0.26467437347891354
-0.26467437347891376
-0.17804293943587746
-0.10017681864137876
-0.008184039128484729
0.08380889670856959
0.17580183254562384
0.267794768382678
0.3597877042197321
0.4517806400567859
0.5437735758938402
0.6357665117308945
0.6604159445978012
0.5684230087607474
0.47643007292369344
0.38443713708663924
0.2924442012495851
0.20045126541253136
0.10845832957547726
0.016465393738424757
-0.07552754209863172
-0.16361357434389773
-0.2551913740765429
-0.25519137407654313
-0.1636135743438978
-0.07552754209863172
0.016465393738422308
0.10845832957547631
0.2004512654125305
0.29244420124958476
0.3844371370866388
0.4764300729236927
0.568423008760747
0.6604159445978012
0.685065377464708
0.5930724416276539
0.5010795057905998
0.40908656995354564
0.31709363411649144
0.22510069827943724
0.13310776244238332
0.04111482660532888
-0.05087810923172502
-0.1477819851544998
-0.24534210977672122
-0.24534210977672144
-0.14778198515449995
-0.05087810923172502
0.041114826605328995
0.133107762442383
0.22510069827943724
0.31709363411649144
0.4090865699535455
0.5010795057905995
0.5930724416276537
0.6850653774647079
0.7097148103316147
0.6177218744945605
0.5257289386575064
0.4337360028204523
0.34174306698339824
0.24975013114634415
0.15775719530928986
0.06576425947223596
-0.026228676364818366
-0.13003702766067615
-0.23508054844310572
-0.2350805484431059
-0.13003702766067626
-0.026228676364818366
0.06576425947223578
0.15775719530928978
0.24975013114634398
0.34174306698339824
0.43373600282045227
0.5257289386575061
0.6177218744945604
0.7097148103316147
0.7343642431985214
0.6423713073614673
0.5503783715244132
0.45838543568735923
0.3663924998503049
0.27439956401325055
0.18240662817619566
0.09041369233914086
-0.0015792434979132286
-0.10945200769945748
-0.22435012298398688
-0.22435012298398713
-0.10945200769945773
-0.0015792434979132286
0.09041369233914259
0.18240662817619657
0.2743995640132508
0.366392499850305
0.45838543568735896
0.5503783715244129
0.6423713073614672
0.7343642431985216
0.7590136760654282
0.667020740228374
0.5750278043913198
0.4830348685542659
0.391041932717212
0.29904899688015757
0.20705606104310276
0.11506312520604652
0.023070189368984233
-0.08396341712949008
-0.21308001105112762
-0.21308001105112795
-0.08396341712949033
0.023070189368996262
0.11506312520604929
0.2070560610431033
0.2990489968801575
0.3910419327172117
0.48303486855426575
0.5750278043913196
0.6670207402283739
0.7590136760654282
0.7836631089323346
0.6916701730952806
0.5996772372582265
0.5076843014211719
0.4156913655841179
0.32369842974706403
0.23170549391000758
0.13971255807295213
0.047719622235892566
-0.04604311938476148
-0.201179533094615
-0.20117953309461528
-0.046043119384762084
0.04771962223590216
0.1397125580729559
0.23170549391001002
0.32369842974706414
0.41569136558411846
0.5076843014211724
0.5996772372582264
0.6916701730952806
0.7836631089323349
0.8083125417992415
0.7163196059621876
0.6243266701251332
0.5323337342880793
0.44034079845102453
0.3483478626139705
0.25635492677691557
0.1643619909398612
0.07236905510280724
-0.019623880734247586
-0.1885293557056458
-0.1885293557056461
-0.019623880734247586
0.07236905510280915
0.16436199093986265
0.2563549267769167
0.348347862613971
0.44034079845102525
0.5323337342880792
0.6243266701251331
0.7163196059621875
0.8083125417992416
0.8329619746661483
0.7409690388290943
0.6489761029920403
0.5569831671549859
0.46499023131793193
0.37299729548087857
0.28100435964382176
0.18901142380676747
0.09701848796971303
0.0050255521326613905
-0.17496694370481697
-0.17496694370481727
0.0050255521326613905
0.09701848796971503
0.18901142380676952
0.28100435964382336
0.3729972954808778
0.4649902313179318
0.556983167154986
0.6489761029920399
0.7409690388290942
0.8329619746661485
0.8576114075330549
0.7656184716960003
0.6736255358589469
0.5816326000218924
0.48963966418483856
0.39764672834778486
0.30565379251072794
0.2136608566736737
0.12166792083661342
0.02967498499956112
-0.16026086489228492
-0.1602608648922856
0.02967498499956673
0.12166792083662208
0.21366085667367632
0.30565379251073016
0.3976467283477846
0.4896396641848388
0.5816326000218927
0.6736255358589467
0.765618471696001
0.8576114075330551
0.8822608403999618
0.7902679045629075
0.6982749687258526
0.6062820328887996
0.514289097051745
0.42229616121469143
0.3303032253776361
0.23831028954057928
0.14631735370352486
0.054324417866466745
-0.1440613002948462
-0.1440613002948466
0.05432441786647492
0.1463173537035298
0.23831028954058278
0.3303032253776368
0.4222961612146912
0.5142890970517455
0.6062820328887994
0.6982749687258534
0.7902679045629076
0.8822608403999618
0.906910273266868
0.8149173374298135
0.7229244015927591
0.6309314657557052
0.5389385299186514
0.4469455940815977
0.3549526582445422
0.2629597224074855
0.1709667865704267
0.07897385073337626
-0.12579257398296773
-0.12579257398296861
0.07897385073338259
0.1709667865704358
0.2629597224074897
0.35495265824454364
0.446945594081598
0.5389385299186521
0.6309314657557061
0.7229244015927601
0.8149173374298143
0.9069102732668686
0.9315597061337746
0.8395667702967206
0.7475738344596667
0.655580898622613
0.5635879627855579
0.47159502694850425
0.3796020911114466
0.28760915527439573
0.19561621943733787
0.10362328360027295
-0.10437377590122576
-0.10437377590122576
0.1036232836002885
0.1956162194373427
0.28760915527439707
0.37960209111145066
0.47159502694850475
0.5635879627855588
0.655580898622613
0.747573834459667
0.8395667702967212
0.9315597061337754

