# vtk DataFile Version 4.1
Header:
ASCII

DATASET UNSTRUCTURED_GRID
POINTS 2 double
-0.45390580112600554 0.1465925826289068 0
0.45390580112600554 0.1465925826289068 0


POINT_DATA 2
VECTORS tangent_vectors double
-0.7071067811865478 0.7071067811865472 0.0
0.7071067811865478 0.7071067811865472 0.0


VECTORS normal_vectors double
-0.7071067811865474 -0.7071067811865479 0.0
-0.7071067811865474 0.7071067811865479 0.0


