# vtk DataFile Version 4.1
Header:
ASCII

DATASET UNSTRUCTURED_GRID
POINTS 2 double
-0.29659258262890686 0.025881904510252074 0
0.29659258262890686 0.025881904510252074 0


POINT_DATA 2
VECTORS tangent_vectors double
-0.9659258262890683 0.2588190451025207 0.0
0.9659258262890683 0.2588190451025207 0.0


VECTORS normal_vectors double
0.2588190451025207 0.9659258262890683 0.0
-0.2588190451025207 0.9659258262890683 0.0


