# vtk DataFile Version 4.1
Header:
ASCII

DATASET UNSTRUCTURED_GRID
POINTS 484 double
-1 -1 0
-0.9047619047619048 -1 0
-0.8095238095238095 -1 0
-0.7142857142857143 -1 0
-0.6190476190476191 -1 0
-0.5238095238095238 -1 0
-0.4285714285714286 -1 0
-0.33333333333333337 -1 0
-0.23809523809523814 -1 0
-0.1428571428571429 -1 0
-0.04761904761904767 -1 0
0.04761904761904745 -1 0
0.1428571428571428 -1 0
0.23809523809523814 -1 0
0.33333333333333326 -1 0
0.4285714285714284 -1 0
0.5238095238095237 -1 0
0.6190476190476191 -1 0
0.7142857142857142 -1 0
0.8095238095238093 -1 0
0.9047619047619047 -1 0
1 -1 0
-1 -0.9047619047619048 0
-0.9047619047619048 -0.9047619047619048 0
-0.8095238095238095 -0.9047619047619048 0
-0.7142857142857143 -0.9047619047619048 0
-0.6190476190476191 -0.9047619047619048 0
-0.5238095238095238 -0.9047619047619048 0
-0.4285714285714286 -0.9047619047619048 0
-0.33333333333333337 -0.9047619047619048 0
-0.23809523809523814 -0.9047619047619048 0
-0.1428571428571429 -0.9047619047619048 0
-0.04761904761904767 -0.9047619047619048 0
0.04761904761904745 -0.9047619047619048 0
0.1428571428571428 -0.9047619047619048 0
0.23809523809523814 -0.9047619047619048 0
0.33333333333333326 -0.9047619047619048 0
0.4285714285714284 -0.9047619047619048 0
0.5238095238095237 -0.9047619047619048 0
0.6190476190476191 -0.9047619047619048 0
0.7142857142857142 -0.9047619047619048 0
0.8095238095238093 -0.9047619047619048 0
0.9047619047619047 -0.9047619047619048 0
1 -0.9047619047619048 0
-1 -0.8095238095238095 0
-0.9047619047619048 -0.8095238095238095 0
-0.8095238095238095 -0.8095238095238095 0
-0.7142857142857143 -0.8095238095238095 0
-0.6190476190476191 -0.8095238095238095 0
-0.5238095238095238 -0.8095238095238095 0
-0.4285714285714286 -0.8095238095238095 0
-0.33333333333333337 -0.8095238095238095 0
-0.23809523809523814 -0.8095238095238095 0
-0.1428571428571429 -0.8095238095238095 0
-0.04761904761904767 -0.8095238095238095 0
0.04761904761904745 -0.8095238095238095 0
0.1428571428571428 -0.8095238095238095 0
0.23809523809523814 -0.8095238095238095 0
0.33333333333333326 -0.8095238095238095 0
0.4285714285714284 -0.8095238095238095 0
0.5238095238095237 -0.8095238095238095 0
0.6190476190476191 -0.8095238095238095 0
0.7142857142857142 -0.8095238095238095 0
0.8095238095238093 -0.8095238095238095 0
0.9047619047619047 -0.8095238095238095 0
1 -0.8095238095238095 0
-1 -0.7142857142857143 0
-0.9047619047619048 -0.7142857142857143 0
-0.8095238095238095 -0.7142857142857143 0
-0.7142857142857143 -0.7142857142857143 0
-0.6190476190476191 -0.7142857142857143 0
-0.5238095238095238 -0.7142857142857143 0
-0.4285714285714286 -0.7142857142857143 0
-0.33333333333333337 -0.7142857142857143 0
-0.23809523809523814 -0.7142857142857143 0
-0.1428571428571429 -0.7142857142857143 0
-0.04761904761904767 -0.7142857142857143 0
0.04761904761904745 -0.7142857142857143 0
0.1428571428571428 -0.7142857142857143 0
0.23809523809523814 -0.7142857142857143 0
0.33333333333333326 -0.7142857142857143 0
0.4285714285714284 -0.7142857142857143 0
0.5238095238095237 -0.7142857142857143 0
0.6190476190476191 -0.7142857142857143 0
0.7142857142857142 -0.7142857142857143 0
0.8095238095238093 -0.7142857142857143 0
0.9047619047619047 -0.7142857142857143 0
1 -0.7142857142857143 0
-1 -0.6190476190476191 0
-0.9047619047619048 -0.6190476190476191 0
-0.8095238095238095 -0.6190476190476191 0
-0.7142857142857143 -0.6190476190476191 0
-0.6190476190476191 -0.6190476190476191 0
-0.5238095238095238 -0.6190476190476191 0
-0.4285714285714286 -0.6190476190476191 0
-0.33333333333333337 -0.6190476190476191 0
-0.23809523809523814 -0.6190476190476191 0
-0.1428571428571429 -0.6190476190476191 0
-0.04761904761904767 -0.6190476190476191 0
0.04761904761904745 -0.6190476190476191 0
0.1428571428571428 -0.6190476190476191 0
0.23809523809523814 -0.6190476190476191 0
0.33333333333333326 -0.6190476190476191 0
0.4285714285714284 -0.6190476190476191 0
0.5238095238095237 -0.6190476190476191 0
0.6190476190476191 -0.6190476190476191 0
0.7142857142857142 -0.6190476190476191 0
0.8095238095238093 -0.6190476190476191 0
0.9047619047619047 -0.6190476190476191 0
1 -0.6190476190476191 0
-1 -0.5238095238095238 0
-0.9047619047619048 -0.5238095238095238 0
-0.8095238095238095 -0.5238095238095238 0
-0.7142857142857143 -0.5238095238095238 0
-0.6190476190476191 -0.5238095238095238 0
-0.5238095238095238 -0.5238095238095238 0
-0.4285714285714286 -0.5238095238095238 0
-0.33333333333333337 -0.5238095238095238 0
-0.23809523809523814 -0.5238095238095238 0
-0.1428571428571429 -0.5238095238095238 0
-0.04761904761904767 -0.5238095238095238 0
0.04761904761904745 -0.5238095238095238 0
0.1428571428571428 -0.5238095238095238 0
0.23809523809523814 -0.5238095238095238 0
0.33333333333333326 -0.5238095238095238 0
0.4285714285714284 -0.5238095238095238 0
0.5238095238095237 -0.5238095238095238 0
0.6190476190476191 -0.5238095238095238 0
0.7142857142857142 -0.5238095238095238 0
0.8095238095238093 -0.5238095238095238 0
0.9047619047619047 -0.5238095238095238 0
1 -0.5238095238095238 0
-1 -0.4285714285714286 0
-0.9047619047619048 -0.4285714285714286 0
-0.8095238095238095 -0.4285714285714286 0
-0.7142857142857143 -0.4285714285714286 0
-0.6190476190476191 -0.4285714285714286 0
-0.5238095238095238 -0.4285714285714286 0
-0.4285714285714286 -0.4285714285714286 0
-0.33333333333333337 -0.4285714285714286 0
-0.23809523809523814 -0.4285714285714286 0
-0.1428571428571429 -0.4285714285714286 0
-0.04761904761904767 -0.4285714285714286 0
0.04761904761904745 -0.4285714285714286 0
0.1428571428571428 -0.4285714285714286 0
0.23809523809523814 -0.4285714285714286 0
0.33333333333333326 -0.4285714285714286 0
0.4285714285714284 -0.4285714285714286 0
0.5238095238095237 -0.4285714285714286 0
0.6190476190476191 -0.4285714285714286 0
0.7142857142857142 -0.4285714285714286 0
0.8095238095238093 -0.4285714285714286 0
0.9047619047619047 -0.4285714285714286 0
1 -0.4285714285714286 0
-1 -0.33333333333333337 0
-0.9047619047619048 -0.33333333333333337 0
-0.8095238095238095 -0.33333333333333337 0
-0.7142857142857143 -0.33333333333333337 0
-0.6190476190476191 -0.33333333333333337 0
-0.5238095238095238 -0.33333333333333337 0
-0.4285714285714286 -0.33333333333333337 0
-0.33333333333333337 -0.33333333333333337 0
-0.23809523809523814 -0.33333333333333337 0
-0.1428571428571429 -0.33333333333333337 0
-0.04761904761904767 -0.33333333333333337 0
0.04761904761904745 -0.33333333333333337 0
0.1428571428571428 -0.33333333333333337 0
0.23809523809523814 -0.33333333333333337 0
0.33333333333333326 -0.33333333333333337 0
0.4285714285714284 -0.33333333333333337 0
0.5238095238095237 -0.33333333333333337 0
0.6190476190476191 -0.33333333333333337 0
0.7142857142857142 -0.33333333333333337 0
0.8095238095238093 -0.33333333333333337 0
0.9047619047619047 -0.33333333333333337 0
1 -0.33333333333333337 0
-1 -0.23809523809523814 0
-0.9047619047619048 -0.23809523809523814 0
-0.8095238095238095 -0.23809523809523814 0
-0.7142857142857143 -0.23809523809523814 0
-0.6190476190476191 -0.23809523809523814 0
-0.5238095238095238 -0.23809523809523814 0
-0.4285714285714286 -0.23809523809523814 0
-0.33333333333333337 -0.23809523809523814 0
-0.23809523809523814 -0.23809523809523814 0
-0.1428571428571429 -0.23809523809523814 0
-0.04761904761904767 -0.23809523809523814 0
0.04761904761904745 -0.23809523809523814 0
0.1428571428571428 -0.23809523809523814 0
0.23809523809523814 -0.23809523809523814 0
0.33333333333333326 -0.23809523809523814 0
0.4285714285714284 -0.23809523809523814 0
0.5238095238095237 -0.23809523809523814 0
0.6190476190476191 -0.23809523809523814 0
0.7142857142857142 -0.23809523809523814 0
0.8095238095238093 -0.23809523809523814 0
0.9047619047619047 -0.23809523809523814 0
1 -0.23809523809523814 0
-1 -0.1428571428571429 0
-0.9047619047619048 -0.1428571428571429 0
-0.8095238095238095 -0.1428571428571429 0
-0.7142857142857143 -0.1428571428571429 0
-0.6190476190476191 -0.1428571428571429 0
-0.5238095238095238 -0.1428571428571429 0
-0.4285714285714286 -0.1428571428571429 0
-0.33333333333333337 -0.1428571428571429 0
-0.23809523809523814 -0.1428571428571429 0
-0.1428571428571429 -0.1428571428571429 0
-0.04761904761904767 -0.1428571428571429 0
0.04761904761904745 -0.1428571428571429 0
0.1428571428571428 -0.1428571428571429 0
0.23809523809523814 -0.1428571428571429 0
0.33333333333333326 -0.1428571428571429 0
0.4285714285714284 -0.1428571428571429 0
0.5238095238095237 -0.1428571428571429 0
0.6190476190476191 -0.1428571428571429 0
0.7142857142857142 -0.1428571428571429 0
0.8095238095238093 -0.1428571428571429 0
0.9047619047619047 -0.1428571428571429 0
1 -0.1428571428571429 0
-1 -0.04761904761904767 0
-0.9047619047619048 -0.04761904761904767 0
-0.8095238095238095 -0.04761904761904767 0
-0.7142857142857143 -0.04761904761904767 0
-0.6190476190476191 -0.04761904761904767 0
-0.5238095238095238 -0.04761904761904767 0
-0.4285714285714286 -0.04761904761904767 0
-0.33333333333333337 -0.04761904761904767 0
-0.23809523809523814 -0.04761904761904767 0
-0.1428571428571429 -0.04761904761904767 0
-0.04761904761904767 -0.04761904761904767 0
0.04761904761904745 -0.04761904761904767 0
0.1428571428571428 -0.04761904761904767 0
0.23809523809523814 -0.04761904761904767 0
0.33333333333333326 -0.04761904761904767 0
0.4285714285714284 -0.04761904761904767 0
0.5238095238095237 -0.04761904761904767 0
0.6190476190476191 -0.04761904761904767 0
0.7142857142857142 -0.04761904761904767 0
0.8095238095238093 -0.04761904761904767 0
0.9047619047619047 -0.04761904761904767 0
1 -0.04761904761904767 0
-1 0.04761904761904745 0
-0.9047619047619048 0.04761904761904745 0
-0.8095238095238095 0.04761904761904745 0
-0.7142857142857143 0.04761904761904745 0
-0.6190476190476191 0.04761904761904745 0
-0.5238095238095238 0.04761904761904745 0
-0.4285714285714286 0.04761904761904745 0
-0.33333333333333337 0.04761904761904745 0
-0.23809523809523814 0.04761904761904745 0
-0.1428571428571429 0.04761904761904745 0
-0.04761904761904767 0.04761904761904745 0
[...]
POINT_DATA 484
SCALARS phi double 1
LOOKUP_TABLE default
-1.2401434992741867
-1.192524451655139
-1.146966488405608
-1.1076557381401737
-1.0753654878753434
-1.0497338980365511
-1.0257898897723567
-1.0088497300281039
-1.0007253605088324
-1
-1
-1
-1
-1.0007253605088324
-1.0088497300281036
-1.0257898897723567
-1.0497338980365511
-1.0753654878753434
-1.1076557381401737
-1.146966488405608
-1.192524451655139
-1.2401434992741867
-1.158494944721695
-1.1100458417709067
-1.062636505706679
-1.020081100682618
-0.9849239311989448
-0.9577409621994971
-0.9331875493530621
-0.9145336965285467
-0.9055635546298907
-0.9047619047619048
-0.9047619047619048
-0.9047619047619048
-0.9047619047619048
-0.9055635546298907
-0.9145336965285467
-0.933187549353062
-0.9577409621994969
-0.9849239311989448
-1.020081100682618
-1.062636505706679
-1.1100458417709067
-1.158494944721695
-1.0790697543375423
-1.0276065328100874
-0.9799481842676269
-0.934007633413149
-0.8954775025384799
-0.8657541483586644
-0.8410985934955361
-0.8204307258774008
-0.8104196723620879
-0.8095238095238095
-0.8095238095238095
-0.8095238095238095
-0.8095238095238095
-0.8104196723620879
-0.8204307258774008
-0.8410985934955361
-0.8657541483586644
-0.8954775025384799
-0.934007633413149
-0.9799481842676268
-1.0276065328100874
-1.0790697543375423
-1.0024036722177372
-0.9467823264211738
-0.8974695743833946
-0.8498915555218571
-0.8073570179455208
-0.7742581238021122
-0.749105657658482
-0.7266236022938085
-0.7153008659285867
-0.7142857142857143
-0.7142857142857143
-0.7142857142857143
-0.7142857142857143
-0.7153008659285867
-0.7266236022938085
-0.749105657658482
-0.7742581238021122
-0.8073570179455208
-0.8498915555218571
-0.8974695743833946
-0.9467823264211738
-1.0024036722177372
-0.9291799066888431
-0.8688837382194308
-0.8152810507176154
-0.7673719168801149
-0.7210487784251325
-0.6837847824542885
-0.657112721821428
-0.6332438175192111
-0.6202186725777119
-0.6190476190476191
-0.6190476190476191
-0.6190476190476191
-0.6190476190476191
-0.6202186725777119
-0.6332438175192111
-0.6571127218214279
-0.6837847824542884
-0.7210487784251325
-0.7673719168801147
-0.8152810507176151
-0.8688837382194308
-0.9291799066888431
-0.8601927867747965
-0.7947714873031212
-0.735789343594389
-0.6848933069958824
-0.6372742593768349
-0.5948009790910833
-0.5651197859843738
-0.5405128999490557
-0.5251929782461805
-0.5238095238095238
-0.5238095238095238
-0.5238095238095238
-0.5238095238095238
-0.5251929782461805
-0.5405128999490557
-0.5651197859843738
-0.5948009790910833
-0.6372742593768349
-0.6848933069958824
-0.7357893435943889
-0.7947714873031212
-0.8601927867747965
-0.792849283804649
-0.7255057808345018
-0.6604765811170492
-0.60340214193378
-0.5547956494926026
-0.5080899234471443
-0.4732295930363706
-0.44847741728041296
-0.43026121897434355
-0.4285714285714286
-0.4285714285714286
-0.4285714285714286
-0.4285714285714286
-0.43026121897434355
-0.44847741728041296
-0.47322959303637047
-0.5080899234471443
-0.5547956494926026
-0.60340214193378
-0.6604765811170491
-0.7255057808345018
-0.7928492838046493
-0.7270129014371237
-0.6581622778643543
-0.590818774894207
-0.5263820765531807
-0.4723170396083704
-0.42469799198932273
-0.3826930922754467
-0.35648448144335887
-0.3355031419773055
-0.33333333333333337
-0.33333333333333337
-0.33333333333333337
-0.33333333333333337
-0.3355031419773055
-0.3564844814433588
-0.3826930922754466
-0.4246979919893227
-0.4723170396083704
-0.5263820765531806
-0.5908187748942069
-0.6581622778643542
-0.7270129014371237
-0.6679847254670735
-0.5926684955345919
-0.5234752719240595
-0.4561317689539122
-0.3926933230488304
-0.34221938210509045
-0.29513106850089366
-0.2644915456063048
-0.24112359811756504
-0.23809523809523814
-0.23809523809523814
-0.23809523809523814
-0.23809523809523814
-0.24112359811756504
-0.2644915456063047
-0.29513106850089355
-0.3422193821050904
-0.3926933230488304
-0.4561317689539121
-0.5234752719240594
-0.5926684955345918
-0.6679847254670735
-0.6176563118272155
-0.5357726847924353
-0.4585251481443195
-0.38878826598376487
-0.32144476301361746
-0.2600368830688247
-0.21212172460181064
-0.17249860976925063
-0.1478492828215241
-0.1428571428571429
-0.1428571428571429
-0.1428571428571429
-0.1428571428571429
-0.1478492828215241
-0.1724986097692506
-0.2121217246018105
-0.26003688306882466
-0.32144476301361746
-0.3887882659837647
-0.45852514814431933
-0.5357726847924352
-0.6176563118272154
-0.5700579379159826
-0.4875586543239355
-0.4050800444397033
-0.32483204352499717
-0.25410126004347006
-0.18675775707332273
-0.12964311471757836
-0.08217221383313479
-0.05585624106528981
-0.04761904761904767
-0.04761904761904767
-0.04761904761904767
-0.04761904761904767
-0.05585624106528981
-0.08217221383313475
-0.12964311471757828
-0.18675775707332265
-0.25410126004347006
-0.32483204352499706
-0.4050800444397031
-0.4875586543239354
-0.5700579379159826
-0.5296677580455087
-0.44172853154248476
-0.35746099682065574
-0.2749823869364235
-0.19252942803323134
-0.11941425410317537
-0.05207075113302803
0.00045454278570139945
0.036136694771764205
0.04761904761904745
0.04761904761904745
0.04761904761904745
0.04761904761904745
0.036136694771764205
0.00045454278570145496
-0.05207075113302788
-0.11941425410317531
-0.19252942803323134
-0.2749823869364234
-0.3574609968206555
-0.44172853154248465
-0.5296677580455087
-0.5025713887235437
-0.41057845288648953
-0.31869000253327606
-0.22895558197760965
-0.14488472943314357
-0.062406119548911336
0.01527275183711945
0.0826162548072668
0.1281296306088184
0.1428571428571428
0.1428571428571428
0.1428571428571428
0.1428571428571428
0.1281296306088184
0.08261625480726688
0.015272751837119604
-0.06240611954891124
-0.14488472943314357
-0.22895558197760954
-0.31869000253327584
-0.4105784528864894
-0.5025713887235437
-0.4779219558566376
-0.38592902001958246
-0.29393608418252865
-0.20194314834547455
-0.10995021250842046
-0.01795727667136635
0.06769153795436858
0.1499597577774143
0.21303081017321374
0.23809523809523814
0.23809523809523814
0.23809523809523814
0.23809523809523814
0.21303081017321374
0.14995975777741438
0.06769153795436877
-0.017957276671366238
-0.10995021250842046
-0.20194314834547447
-0.2939360841825285
-0.3859290200195827
-0.4779219558566369
-0.4532725229897303
-0.361279587152677
-0.2692866513156217
-0.17729371547856837
-0.08530077964151325
0.006692156195540191
0.09868509203259447
0.19067802786964858
0.2802678053418806
0.33333333333333326
0.33333333333333326
0.33333333333333326
0.33333333333333326
0.2802678053418806
0.1906780278696487
0.09868509203259469
0.006692156195540466
-0.08530077964151375
-0.17729371547856776
-0.2692866513156218
-0.36127958715267594
-0.4532725229897302
-0.428623090122823
-0.33663015428576953
-0.24463721844871533
-0.15264428261166102
-0.06065134677460678
0.03134158906244666
0.1233345248995009
0.21532746073655604
0.30732039657360943
0.3993133324106635
0.4285714285714284
0.4285714285714284
0.3993133324106636
0.3073203965736094
0.2153274607365554
0.12333452489950139
0.03134158906244718
-0.06065134677460705
-0.15264428261166105
-0.24463721844871508
-0.33663015428576926
-0.4286230901228235
-0.4039736572559157
-0.31198072141886235
-0.21998778558180715
-0.12799484974475375
-0.036001913907699516
0.05599102192935479
0.14798395776640816
0.2399768936034633
0.3319698294405168
0.423962765277571
0.5159557011146252
0.5159557011146246
0.4239627652775704
0.3319698294405162
0.23997689360346217
0.14798395776640816
0.05599102192935395
-0.03600191390770028
-0.12799484974475428
-0.2199877855818083
-0.31198072141886257
-0.4039736572559167
-0.3793242243890102
-0.28733128855195506
-0.19533835271490074
-0.10334541687784733
-0.011352481040793106
0.08064045479626125
0.17263339063331465
0.2646263264703697
0.356619262307424
0.4486121981444774
0.5406051339815325
0.5406051339815314
0.4486121981444771
0.3566192623074229
0.26462632647036893
0.17263339063331493
0.08064045479626071
-0.011352481040793505
-0.10334541687784751
-0.19533835271490152
-0.2873312885519557
-0.37932422438901
-0.3546747915221029
-0.2626818556850486
-0.1706889198479943
-0.07869598401094094
0.013296951826114161
0.10528988766316853
0.19728282350022192
0.2892757593372762
0.38126869517432954
0.47326163101138385
0.565254566848438
0.5652545668484381
0.47326163101138385
0.38126869517432965
0.2892757593372756
0.19728282350022164
0.10528988766316742
0.013296951826113205
-0.0786959840109408
-0.1706889198479948
-0.2626818556850491
-0.3546747915221033
-0.33002535865519644
-0.23803242281814213
-0.14603948698108793
-0.05404655114403361
0.03794638469302063
0.1299393205300741
0.22193225636712832
0.31392519220418347
0.405918128041236
0.49791106387829037
0.5899039997153445
0.5899039997153448
0.4979110638782906
0.40591812804123634
0.31392519220418236
0.22193225636712835
0.12993932053007418
0.03794638469301992
-0.054046551144034095
-0.1460394869810881
-0.2380324228181423
-0.33002535865519655
-0.30537592578829004
-0.2133829899512358
-0.12139005411418151
-0.029397118277126346
0.0625958175599279
0.15458875339698136
0.24658168923403473
0.3385746250710899
0.43056756090814324
0.5225604967451977
0.6145534325822518
0.6145534325822516
0.5225604967451973
0.43056756090814313
0.33857462507108915
0.24658168923403512
0.15458875339698092
0.06259581755992669
-0.029397118277127317
-0.12139005411418136
-0.21338298995123556
-0.30537592578828987
-0.2807264929213827
-0.18873355708432935
-0.09674062124727419
-0.004747685410219872
0.08724525042683437
0.17923818626388868
0.271231122100942
0.3632240579379963
0.4552169937750497
0.547209929612104
0.6392028654491592
0.6392028654491584
0.5472099296121041
0.45521699377505
0.36322405793799584
0.27123112210094186
0.17923818626388768
0.08724525042683343
-0.004747685410220544
-0.09674062124727456
-0.18873355708432876
-0.280726492921383

SCALARS psi double 1
LOOKUP_TABLE default
-0.6719219039740646
-0.697729477860777
-0.728735551729183
-0.758599777894842
-0.7873320403045784
-0.8163515321430362
-0.8522530016638381
-0.888342211470613
-0.9230214464008828
-0.9581495720783391
-1.0004108940007896
-1.0004108940007896
-0.9581495720783391
-0.9230214464008828
-0.8883422114706135
-0.8522530016638381
-0.8163515321430362
-0.7873320403045784
-0.758599777894842
-0.728735551729183
-0.697729477860777
-0.6719219039740646
-0.6349029889355894
-0.6576599575094211
-0.6878725791103614
-0.719435058750967
-0.7496698756306496
-0.7790254992728987
-0.8145664325330035
-0.852253001663838
-0.8883422114706132
-0.9247885686136189
-0.9685067119023909
-0.9685067119023909
-0.9247885686136189
-0.8883422114706132
-0.8522530016638382
-0.8145664325330036
-0.7790254992728989
-0.7496698756306496
-0.719435058750967
-0.6878725791103614
-0.6576599575094211
-0.6349029889355894
-0.5955995262095649
-0.6185961463768413
-0.6449686601262855
-0.6780117878753373
-0.7100127485939799
-0.7406323121725414
-0.7751313561835972
-0.8145664325330038
-0.8522530016638383
-0.8901781792444413
-0.9355151228946028
-0.9355151228946028
-0.8901781792444415
-0.8522530016638383
-0.8145664325330038
-0.7751313561835972
-0.7406323121725414
-0.7100127485939799
-0.6780117878753373
-0.6449686601262857
-0.6185961463768413
-0.5955995262095649
-0.5535122274013216
-0.5781852493569798
-0.6024034836069909
-0.6338873442779998
-0.668005452001615
-0.700463705392327
-0.734285199765377
-0.7750495256266319
-0.8145664325330041
-0.854166544045991
-0.9013167253130424
-0.9013167253130424
-0.854166544045991
-0.8145664325330041
-0.7750495256266322
-0.734285199765377
-0.700463705392327
-0.668005452001615
-0.6338873442779998
-0.6024034836069909
-0.5781852493569798
-0.5535122274013216
-0.5079495803172644
-0.5347290648877292
-0.5602299255903113
-0.5877655397752668
-0.6231729010810606
-0.6578469299995646
-0.6919075653085869
-0.7334064775679238
-0.7750495256266319
-0.8165682942240616
-0.865768521888818
-0.865768521888818
-0.8165682942240619
-0.7750495256266319
-0.7334064775679238
-0.691907565308587
-0.6578469299995647
-0.6231729010810606
-0.5877655397752668
-0.5602299255903115
-0.5347290648877292
-0.5079495803172644
-0.4580351530930109
-0.4874137493930787
-0.5152616420699674
-0.5418384476441045
-0.5748713600410306
-0.6122709890626503
-0.6476979175119785
-0.6892520261146222
-0.7334064775679239
-0.7771531852193081
-0.8286968249354351
-0.8286968249354352
-0.7771531852193082
-0.7334064775679239
-0.6892520261146222
-0.6476979175119785
-0.6122709890626503
-0.5748713600410306
-0.5418384476441045
-0.5152616420699674
-0.4874137493930787
-0.4580351530930109
-0.4093875808784398
-0.4351500757461401
-0.4659737654099771
-0.4950292382693902
-0.5246691299119057
-0.5630177126748853
-0.6011714093781628
-0.6423168244897977
-0.6892520261146223
-0.7356292323317765
-0.789887157651391
-0.7898871576513912
-0.7356292323317765
-0.6892520261146223
-0.6423168244897977
-0.6011714093781628
-0.5630177126748853
-0.5246691299119057
-0.4950292382693902
-0.4659737654099769
-0.4351500757461401
-0.4093875808784394
-0.3637050387867883
-0.3836112333214898
-0.41099267070691803
-0.4434985197306593
-0.473934023427205
-0.5093101870003194
-0.5509267139934588
-0.592657276350426
-0.6420682593522548
-0.6916167013784159
-0.7490694333552235
-0.7490694333552236
-0.6916167013784159
-0.6420682593522548
-0.592657276350426
-0.5509267139934588
-0.5093101870003194
-0.473934023427205
-0.44349851973065946
-0.41099267070691803
-0.38361123332149
-0.3637050387867883
-0.3120689765014169
-0.33442598910944854
-0.35597326484353864
-0.3853237110894407
-0.4198217764197323
-0.45322474662215056
-0.4956141895966398
-0.5395642505586087
-0.5911302257812205
-0.6446060469698398
-0.7058953960408285
-0.7058953960408286
-0.6446060469698399
-0.5911302257812205
-0.5395642505586088
-0.49561418959664
-0.4532247466221506
-0.4198217764197323
-0.38532371108944086
-0.3559732648435388
-0.33442598910944843
-0.3120689765014169
-0.25098492990250565
-0.2773922007691917
-0.302324542743004
-0.3260005402392789
-0.3578180393449615
-0.39472738809101304
-0.4343296691479495
-0.48190424653862635
-0.5353673860039283
-0.593885721292073
-0.6599027233738018
-0.659902723373802
-0.5938857212920731
-0.5353673860039283
-0.4819042465386264
-0.43432966914794957
-0.3947273880910132
-0.3578180393449615
-0.32600054023927905
-0.30232454274300397
-0.27739220076919185
-0.25098492990250587
-0.19639095343855148
-0.21290388912949507
-0.23790397814586037
-0.26638227436843487
-0.2929773697561559
-0.32801392688970693
-0.36860989535266125
-0.4174660525999788
-0.47370922870146376
-0.5384083432852134
-0.6104546653771129
-0.6104546653771131
-0.5384083432852135
-0.47370922870146376
-0.417466052599979
-0.36860989535266125
-0.32801392688970704
-0.2929773697561559
-0.26638227436843487
-0.23790397814586042
-0.21290388912949507
-0.19639095343855148
-0.14202401003031953
-0.15843202327330702
-0.17347355745877702
-0.19504705493186839
-0.22476410534298794
-0.2557247077272139
-0.29521606187086047
-0.3438215603405714
-0.40422492065479376
-0.47651530750192134
-0.5566311100227918
-0.556631110022792
-0.4765153075019214
-0.40422492065479376
-0.34382156034057143
-0.2952160618708606
-0.25572470772721395
-0.22476410534298794
-0.1950470549318684
-0.1734735574587771
-0.1584320232733072
-0.14202401003031953
-0.05886116128840839
-0.0835105941553148
-0.10785177515666702
-0.12869301448728895
-0.1480499328611974
-0.17630726077424325
-0.21202479358580342
-0.2582864884957657
-0.3218855832141803
-0.405277845987383
-0.4970125620240675
-0.49701256202406774
-0.4052778459873831
-0.3218855832141803
-0.2582864884957657
-0.2120247935858035
-0.1763072607742433
-0.1480499328611974
-0.12869301448728904
-0.10785177515666715
-0.08351059415531446
-0.05886116128840839
0.0331317745486367
0.008482341681756359
-0.016167091185167282
-0.04081652405207388
-0.06546595691898048
-0.09011538978588716
-0.11861744827805645
-0.15656915420361733
-0.21933964106124046
-0.31848614822735266
-0.4291908444669456
-0.4291908444669459
-0.3184861482273527
-0.21933964106124046
-0.15656915420361736
-0.11861744827805658
-0.0901153897858872
-0.06546595691898048
-0.04081652405207388
-0.016167091185166422
0.008482341681741635
0.03313177454864718
0.1251247103857003
0.10047527751879083
0.07582584465188828
0.05117641178497858
0.026526978918075213
0.001877546051167441
-0.02277188681573993
-0.04742131968264668
-0.08091368478063966
-0.19651137569417626
-0.34840791486241013
-0.3484079148624104
-0.19651137569417645
-0.08091368478063966
-0.04742131968264675
-0.02277188681573993
0.0018775460511668148
0.026526978918073613
0.05117641178498041
0.07582584465188691
0.10047527751879415
0.12512471038570075
0.21711764622275545
0.19246821335584768
0.16781878048894094
0.14316934762203448
0.11851991475512771
0.09387048188822097
0.06922104902131464
0.044571616154403845
0.019922183287500558
-0.0047272495794142555
-0.24201522535430456
-0.242015225354305
-0.0047272495794113195
0.019922183287501602
0.044571616154407426
0.06922104902131405
0.09387048188822082
0.11851991475512758
0.14316934762203432
0.16781878048894103
0.19246821335584782
0.21711764622275448
0.30911058205981
0.2844611491929024
0.2598117163259964
0.23516228345908893
0.21051285059218194
0.1858634177252748
0.16121398485836813
0.1365645519914595
0.11191511912455301
0.0872656862576446
0.06261625339073522
0.06261625339074188
0.08726568625764825
0.1119151191245548
0.1365645519914616
0.16121398485836827
0.18586341772527507
0.2105128505921818
0.23516228345908852
0.25981171632599526
0.28446114919290194
0.30911058205980874
0.4011035178968627
0.37645408502995686
0.35180465216305007
0.32715521929614283
0.30250578642923603
0.27785635356232913
0.25320692069542255
0.22855748782851484
0.2039080549616072
0.17925862209470156
0.15460918922779063
0.15460918922779546
0.1792586220947024
0.20390805496160916
0.22855748782851582
0.2532069206954225
0.27785635356232924
0.30250578642923603
0.3271552192961427
0.3518046521630495
0.3764540850299562
0.4011035178968629
0.4930964537339172
0.46844702086701057
0.4437975880001038
0.41914815513319675
0.39449872226629007
0.36984928939938294
0.3451998565324763
0.32055042366556924
0.2959009907986633
0.27125155793175626
0.2466021250648494
0.24660212506484974
0.2712515579317564
0.29590099079866317
0.32055042366556985
0.34519985653247653
0.36984928939938333
0.39449872226629007
0.41914815513319675
0.44379758800010344
0.4684470208670102
0.4930964537339169
0.585089389570971
0.5604399567040643
0.5357905238371576
0.511141090970251
0.486491658103344
0.46184222523643725
0.43719279236953046
0.41254335950262294
0.3878939266357175
0.3632444937688105
0.33859506090190383
0.33859506090190367
0.3632444937688104
0.38789392663571715
0.41254335950262383
0.4371927923695305
0.46184222523643725
0.48649165810334405
0.5111410909702508
0.5357905238371574
0.5604399567040643
0.5850893895709709
0.6770823254080252
0.6524328925411184
0.6277834596742117
0.6031340268073051
0.5784845939403982
0.5538351610734913
0.5291857282065848
0.5045362953396775
0.4798868624727712
0.45523742960586416
0.43058799673895715
0.43058799673895787
0.4552374296058645
0.4798868624727713
0.504536295339678
0.5291857282065848
0.5538351610734915
0.5784845939403983
0.6031340268073049
0.6277834596742118
0.6524328925411185
0.6770823254080253
0.7690752612450795
0.7444258283781726
0.719776395511266
0.6951269626443592
0.6704775297774523
0.6458280969105454
0.6211786640436389
0.596529231176732
0.5718797983098258
0.5472303654429188
0.5225809325760108
0.5225809325760119
0.5472303654429188
0.5718797983098256
0.5965292311767324
0.621178664043639
0.6458280969105458
0.6704775297774525
0.6951269626443591
0.7197763955112659
0.7444258283781727
0.7690752612450794

