# vtk DataFile Version 4.1
Header:
ASCII

DATASET UNSTRUCTURED_GRID
POINTS 2 double
-10.503905801126013 17.553703198696123 0.0
10.503905801126013 17.553703198696123 0.0


POINT_DATA 2
VECTORS normals double
0.8660254037844385 0.5000000000000003 0.0
-0.8660254037844385 0.5000000000000003 0.0

