# vtk DataFile Version 4.1
Header:
ASCII

DATASET UNSTRUCTURED_GRID
POINTS 2 double
-19.615109108410273 5.202262806560666 0.0
19.615109108410273 5.202262806560666 0.0


POINT_DATA 2
VECTORS normals double
0.2588190451025207 0.9659258262890683 0.0
-0.2588190451025207 0.9659258262890683 0.0

