# vtk DataFile Version 4.1
Header:
ASCII

DATASET UNSTRUCTURED_GRID
POINTS 6 double
-0.3398938528181288 0.05088190451025207 0.0
-0.24829629131445344 0.012940952255126037 0.0
-0.1 0 0.0
0.1 0 0.0
0.24829629131445344 0.012940952255126037 0.0
0.3398938528181288 0.05088190451025207 0.0


POINT_DATA 6
VECTORS normals double
0.4999999999999998 0.8660254037844387 0.0
0.2588190451025207 0.9659258262890683 0.0
-0 1 0.0
-0 1 0.0
-0.2588190451025207 0.9659258262890683 0.0
-0.4999999999999998 0.8660254037844387 0.0

