# vtk DataFile Version 4.1
Header:
ASCII

DATASET UNSTRUCTURED_GRID
POINTS 15 double
-0.5297877056362577 0.4297877056362575 0.0
-0.5297877056362577 0.3297877056362575 0.0
-0.5039058011260056 0.23319512300735065 0.0
-0.45390580112600554 0.1465925826289068 0.0
-0.38319512300735076 0.07588190451025206 0.0
-0.29659258262890686 0.025881904510252074 0.0
-0.2 0 0.0
0 0 0.0
0.2 0 0.0
0.29659258262890686 0.025881904510252074 0.0
0.38319512300735076 0.07588190451025206 0.0
0.45390580112600554 0.1465925826289068 0.0
0.5039058011260056 0.23319512300735065 0.0
0.5297877056362577 0.3297877056362575 0.0
0.5297877056362577 0.4297877056362575 0.0


POINT_DATA 15
VECTORS normals double
1 0 0.0
0.9914448613738105 0.13052619222005157 0.0
0.9238795325112867 0.38268343236509 0.0
0.793353340291235 0.608761429008721 0.0
0.6087614290087204 0.7933533402912354 0.0
0.3826834323650896 0.9238795325112868 0.0
0.0869337923250398 0.9962140913237407 0.0
0 1 0.0
-0.0869337923250398 0.9962140913237407 0.0
-0.3826834323650896 0.9238795325112868 0.0
-0.6087614290087204 0.7933533402912354 0.0
-0.793353340291235 0.608761429008721 0.0
-0.9238795325112867 0.38268343236509 0.0
-0.9914448613738105 0.13052619222005157 0.0
-1 0 0.0

