# vtk DataFile Version 4.1
Header:
ASCII

DATASET UNSTRUCTURED_GRID
POINTS 2 double
-7.5249736129914835 7.217660394494379 0.0
7.5249736129914835 7.217660394494379 0.0


POINT_DATA 2
VECTORS normals double
0.7071067811865472 0.7071067811865478 0.0
-0.7071067811865472 0.7071067811865478 0.0

