# vtk DataFile Version 4.1
Header:
ASCII

DATASET UNSTRUCTURED_GRID
POINTS 2 double
-17.70370319869613 10.075881904510249 0.0
17.70370319869613 10.075881904510249 0.0


POINT_DATA 2
VECTORS normals double
0.4999999999999997 0.8660254037844386 0.0
-0.4999999999999997 0.8660254037844386 0.0

