# vtk DataFile Version 4.1
Header:
ASCII

DATASET UNSTRUCTURED_GRID
POINTS 12 double
-0.5168467533811316 0.2814914143218041 0.0
-0.47890580112600556 0.1898938528181287 0.0
-0.4185504620666781 0.11123724356957942 0.0
-0.3398938528181288 0.05088190451025207 0.0
-0.24829629131445344 0.012940952255126037 0.0
-0.1 0 0.0
0.1 0 0.0
0.24829629131445344 0.012940952255126037 0.0
0.3398938528181288 0.05088190451025207 0.0
0.4185504620666781 0.11123724356957942 0.0
0.47890580112600556 0.1898938528181287 0.0
0.5168467533811316 0.2814914143218041 0.0


POINT_DATA 12
VECTORS normals double
0.9659258262890683 0.25881904510252074 0.0
0.8660254037844385 0.5000000000000003 0.0
0.7071067811865474 0.7071067811865479 0.0
0.4999999999999998 0.8660254037844387 0.0
0.2588190451025207 0.9659258262890683 0.0
-0 1 0.0
-0 1 0.0
-0.2588190451025207 0.9659258262890683 0.0
-0.4999999999999998 0.8660254037844387 0.0
-0.7071067811865474 0.7071067811865479 0.0
-0.8660254037844385 0.5000000000000003 0.0
-0.9659258262890683 0.25881904510252074 0.0

