# vtk DataFile Version 4.1
Header:
ASCII

DATASET UNSTRUCTURED_GRID
POINTS 2 double
-5.7061686076866724 19.64830423141762 0.0
5.7061686076866724 19.64830423141762 0.0


POINT_DATA 2
VECTORS normals double
0.9659258262890682 0.2588190451025207 0.0
-0.9659258262890682 0.2588190451025207 0.0

