# vtk DataFile Version 4.1
Header:
ASCII

DATASET UNSTRUCTURED_GRID
POINTS 2 double
-3.117978156661465 9.989045968526938 0.0
3.117978156661465 9.989045968526938 0.0


POINT_DATA 2
VECTORS normals double
0.9659258262890683 0.2588190451025208 0.0
-0.9659258262890683 0.2588190451025208 0.0

