# vtk DataFile Version 4.1
Header:
ASCII

DATASET UNSTRUCTURED_GRID
POINTS 40 double
-0.04761904761904767 -0.04761904761904767 0.0
-0.04761904761904767 0.04761904761904745 0.0
0.04761904761904745 -0.04761904761904767 0.0
0.04761904761904745 0.04761904761904745 0.0
-0.1428571428571429 -0.04761904761904767 0.0
-0.1428571428571429 0.04761904761904745 0.0
0.1428571428571428 -0.04761904761904767 0.0
0.1428571428571428 0.04761904761904745 0.0
-0.23809523809523814 -0.04761904761904767 0.0
-0.23809523809523814 0.04761904761904745 0.0
0.23809523809523814 -0.04761904761904767 0.0
0.23809523809523814 0.04761904761904745 0.0
-0.4285714285714286 -0.04761904761904767 0.0
-0.33333333333333337 -0.04761904761904767 0.0
0.33333333333333326 -0.04761904761904767 0.0
0.4285714285714284 -0.04761904761904767 0.0
-0.33333333333333337 0.04761904761904745 0.0
-0.4285714285714286 0.04761904761904745 0.0
0.33333333333333326 0.04761904761904745 0.0
0.4285714285714284 0.04761904761904745 0.0
-0.5238095238095238 0.04761904761904745 0.0
-0.33333333333333337 0.1428571428571428 0.0
0.33333333333333326 0.1428571428571428 0.0
0.5238095238095237 0.04761904761904745 0.0
-0.4285714285714286 0.1428571428571428 0.0
-0.5238095238095238 0.1428571428571428 0.0
0.4285714285714284 0.1428571428571428 0.0
0.5238095238095237 0.1428571428571428 0.0
-0.4285714285714286 0.23809523809523814 0.0
0.4285714285714284 0.23809523809523814 0.0
-0.4285714285714286 0.33333333333333326 0.0
0.4285714285714284 0.33333333333333326 0.0
-0.5238095238095238 0.23809523809523814 0.0
0.5238095238095237 0.23809523809523814 0.0
-0.5238095238095238 0.33333333333333326 0.0
0.5238095238095237 0.33333333333333326 0.0
-0.6190476190476191 0.23809523809523814 0.0
-0.6190476190476191 0.33333333333333326 0.0
0.6190476190476191 0.23809523809523814 0.0
0.6190476190476191 0.33333333333333326 0.0


POINT_DATA 40
SCALARS Heaviside_nodes_all double 1
LOOKUP_TABLE default
0
0
0
0
0
0
0
0
0
0
0
0
0
0
0
0
0
0
0
0
0
0
0
0
0
0
0
0
0
0
0
0
0
0
0
0
0
0
0
0

