# vtk DataFile Version 4.1
Header:
ASCII

DATASET UNSTRUCTURED_GRID
POINTS 4 double
-0.04761904761904767 -0.04761904761904767 0.0
-0.04761904761904767 0.04761904761904745 0.0
0.04761904761904745 -0.04761904761904767 0.0
0.04761904761904745 0.04761904761904745 0.0


POINT_DATA 4
SCALARS Heaviside_nodes_all double 1
LOOKUP_TABLE default
0
0
0
0

