# vtk DataFile Version 4.1
Header:
ASCII

DATASET UNSTRUCTURED_GRID
POINTS 20 double
-0.1428571428571429 -0.04761904761904767 0
-0.04761904761904767 -0.04761904761904767 0
-0.04761904761904767 0.04761904761904745 0
-0.1428571428571429 0.04761904761904745 0
-0.04761904761904767 -0.04761904761904767 0
0.04761904761904745 -0.04761904761904767 0
0.04761904761904745 0.04761904761904745 0
-0.04761904761904767 0.04761904761904745 0
0.04761904761904745 -0.04761904761904767 0
0.1428571428571428 -0.04761904761904767 0
0.1428571428571428 0.04761904761904745 0
0.04761904761904745 0.04761904761904745 0
-0.23809523809523814 -0.04761904761904767 0
-0.1428571428571429 -0.04761904761904767 0
-0.1428571428571429 0.04761904761904745 0
-0.23809523809523814 0.04761904761904745 0
0.1428571428571428 -0.04761904761904767 0
0.23809523809523814 -0.04761904761904767 0
0.23809523809523814 0.04761904761904745 0
0.1428571428571428 0.04761904761904745 0

CELLS 5 25
4 0 1 2 3
4 4 5 6 7
4 8 9 10 11
4 12 13 14 15
4 16 17 18 19

CELL_TYPES 5
9
9
9
9
9


POINT_DATA 20
SCALARS is_in_intersected_element double 1
LOOKUP_TABLE default
1
1
1
1
1
1
1
1
1
1
1
1
1
1
1
1
1
1
1
1

