# vtk DataFile Version 4.1
Header:
ASCII

DATASET UNSTRUCTURED_GRID
POINTS 3 double
-0.09523809523809529 -1.1102230246251565E-16 0.0
-1.1102230246251565E-16 -1.1102230246251565E-16 0.0
0.09523809523809512 -1.1102230246251565E-16 0.0


POINT_DATA 3
SCALARS intersected_element_centroids double 1
LOOKUP_TABLE default
0
0
0

