# vtk DataFile Version 4.1
Header:
ASCII

DATASET UNSTRUCTURED_GRID
POINTS 28 double
-0.1428571428571429 -0.04761904761904767 0
-0.04761904761904767 -0.04761904761904767 0
-0.04761904761904767 0.04761904761904745 0
-0.1428571428571429 0.04761904761904745 0
-0.04761904761904767 -0.04761904761904767 0
0.04761904761904745 -0.04761904761904767 0
0.04761904761904745 0.04761904761904745 0
-0.04761904761904767 0.04761904761904745 0
0.04761904761904745 -0.04761904761904767 0
0.1428571428571428 -0.04761904761904767 0
0.1428571428571428 0.04761904761904745 0
0.04761904761904745 0.04761904761904745 0
-0.23809523809523814 -0.04761904761904767 0
-0.1428571428571429 -0.04761904761904767 0
-0.1428571428571429 0.04761904761904745 0
-0.23809523809523814 0.04761904761904745 0
0.1428571428571428 -0.04761904761904767 0
0.23809523809523814 -0.04761904761904767 0
0.23809523809523814 0.04761904761904745 0
0.1428571428571428 0.04761904761904745 0
-0.33333333333333337 -0.04761904761904767 0
-0.23809523809523814 -0.04761904761904767 0
-0.23809523809523814 0.04761904761904745 0
-0.33333333333333337 0.04761904761904745 0
0.23809523809523814 -0.04761904761904767 0
0.33333333333333326 -0.04761904761904767 0
0.33333333333333326 0.04761904761904745 0
0.23809523809523814 0.04761904761904745 0

CELLS 7 35
4 0 1 2 3
4 4 5 6 7
4 8 9 10 11
4 12 13 14 15
4 16 17 18 19
4 20 21 22 23
4 24 25 26 27

CELL_TYPES 7
9
9
9
9
9
9
9


POINT_DATA 28
SCALARS is_in_intersected_element double 1
LOOKUP_TABLE default
1
1
1
1
1
1
1
1
1
1
1
1
1
1
1
1
1
1
1
1
1
1
1
1
1
1
1
1

