# vtk DataFile Version 4.1
Header:
ASCII

DATASET UNSTRUCTURED_GRID
POINTS 68 double
-0.1428571428571429 -0.04761904761904767 0
-0.04761904761904767 -0.04761904761904767 0
-0.04761904761904767 0.04761904761904745 0
-0.1428571428571429 0.04761904761904745 0
-0.04761904761904767 -0.04761904761904767 0
0.04761904761904745 -0.04761904761904767 0
0.04761904761904745 0.04761904761904745 0
-0.04761904761904767 0.04761904761904745 0
0.04761904761904745 -0.04761904761904767 0
0.1428571428571428 -0.04761904761904767 0
0.1428571428571428 0.04761904761904745 0
0.04761904761904745 0.04761904761904745 0
-0.23809523809523814 -0.04761904761904767 0
-0.1428571428571429 -0.04761904761904767 0
-0.1428571428571429 0.04761904761904745 0
-0.23809523809523814 0.04761904761904745 0
0.1428571428571428 -0.04761904761904767 0
0.23809523809523814 -0.04761904761904767 0
0.23809523809523814 0.04761904761904745 0
0.1428571428571428 0.04761904761904745 0
-0.4285714285714286 -0.04761904761904767 0
-0.33333333333333337 -0.04761904761904767 0
-0.33333333333333337 0.04761904761904745 0
-0.4285714285714286 0.04761904761904745 0
-0.33333333333333337 -0.04761904761904767 0
-0.23809523809523814 -0.04761904761904767 0
-0.23809523809523814 0.04761904761904745 0
-0.33333333333333337 0.04761904761904745 0
0.23809523809523814 -0.04761904761904767 0
0.33333333333333326 -0.04761904761904767 0
0.33333333333333326 0.04761904761904745 0
0.23809523809523814 0.04761904761904745 0
0.33333333333333326 -0.04761904761904767 0
0.4285714285714284 -0.04761904761904767 0
0.4285714285714284 0.04761904761904745 0
0.33333333333333326 0.04761904761904745 0
-0.5238095238095238 0.04761904761904745 0
-0.4285714285714286 0.04761904761904745 0
-0.4285714285714286 0.1428571428571428 0
-0.5238095238095238 0.1428571428571428 0
-0.4285714285714286 0.04761904761904745 0
-0.33333333333333337 0.04761904761904745 0
-0.33333333333333337 0.1428571428571428 0
-0.4285714285714286 0.1428571428571428 0
0.33333333333333326 0.04761904761904745 0
0.4285714285714284 0.04761904761904745 0
0.4285714285714284 0.1428571428571428 0
0.33333333333333326 0.1428571428571428 0
0.4285714285714284 0.04761904761904745 0
0.5238095238095237 0.04761904761904745 0
0.5238095238095237 0.1428571428571428 0
0.4285714285714284 0.1428571428571428 0
-0.5238095238095238 0.1428571428571428 0
-0.4285714285714286 0.1428571428571428 0
-0.4285714285714286 0.23809523809523814 0
-0.5238095238095238 0.23809523809523814 0
0.4285714285714284 0.1428571428571428 0
0.5238095238095237 0.1428571428571428 0
0.5238095238095237 0.23809523809523814 0
0.4285714285714284 0.23809523809523814 0
-0.5238095238095238 0.23809523809523814 0
-0.4285714285714286 0.23809523809523814 0
-0.4285714285714286 0.33333333333333326 0
-0.5238095238095238 0.33333333333333326 0
0.4285714285714284 0.23809523809523814 0
0.5238095238095237 0.23809523809523814 0
0.5238095238095237 0.33333333333333326 0
0.4285714285714284 0.33333333333333326 0

CELLS 17 85
4 0 1 2 3
4 4 5 6 7
4 8 9 10 11
4 12 13 14 15
4 16 17 18 19
4 20 21 22 23
4 24 25 26 27
4 28 29 30 31
4 32 33 34 35
4 36 37 38 39
4 40 41 42 43
4 44 45 46 47
4 48 49 50 51
4 52 53 54 55
4 56 57 58 59
4 60 61 62 63
4 64 65 66 67

CELL_TYPES 17
9
9
9
9
9
9
9
9
9
9
9
9
9
9
9
9
9


POINT_DATA 68
SCALARS is_in_intersected_element double 1
LOOKUP_TABLE default
1
1
1
1
1
1
1
1
1
1
1
1
1
1
1
1
1
1
1
1
1
1
1
1
1
1
1
1
1
1
1
1
1
1
1
1
1
1
1
1
1
1
1
1
1
1
1
1
1
1
1
1
1
1
1
1
1
1
1
1
1
1
1
1
1
1
1
1

