# vtk DataFile Version 4.1
Header:
ASCII

DATASET UNSTRUCTURED_GRID
POINTS 676 double
-1 -1 0
-0.92 -1 0
-0.84 -1 0
-0.76 -1 0
-0.6799999999999999 -1 0
-0.6 -1 0
-0.52 -1 0
-0.43999999999999995 -1 0
-0.36 -1 0
-0.28 -1 0
-0.19999999999999996 -1 0
-0.12 -1 0
-0.040000000000000036 -1 0
0.040000000000000036 -1 0
0.1200000000000001 -1 0
0.19999999999999996 -1 0
0.28 -1 0
0.3600000000000001 -1 0
0.43999999999999995 -1 0
0.52 -1 0
0.6000000000000001 -1 0
0.6799999999999999 -1 0
0.76 -1 0
0.8400000000000001 -1 0
0.9199999999999999 -1 0
1 -1 0
-1 -0.92 0
-0.92 -0.92 0
-0.84 -0.92 0
-0.76 -0.92 0
-0.6799999999999999 -0.92 0
-0.6 -0.92 0
-0.52 -0.92 0
-0.43999999999999995 -0.92 0
-0.36 -0.92 0
-0.28 -0.92 0
-0.19999999999999996 -0.92 0
-0.12 -0.92 0
-0.040000000000000036 -0.92 0
0.040000000000000036 -0.92 0
0.1200000000000001 -0.92 0
0.19999999999999996 -0.92 0
0.28 -0.92 0
0.3600000000000001 -0.92 0
0.43999999999999995 -0.92 0
0.52 -0.92 0
0.6000000000000001 -0.92 0
0.6799999999999999 -0.92 0
0.76 -0.92 0
0.8400000000000001 -0.92 0
0.9199999999999999 -0.92 0
1 -0.92 0
-1 -0.84 0
-0.92 -0.84 0
-0.84 -0.84 0
-0.76 -0.84 0
-0.6799999999999999 -0.84 0
-0.6 -0.84 0
-0.52 -0.84 0
-0.43999999999999995 -0.84 0
-0.36 -0.84 0
-0.28 -0.84 0
-0.19999999999999996 -0.84 0
-0.12 -0.84 0
-0.040000000000000036 -0.84 0
0.040000000000000036 -0.84 0
0.1200000000000001 -0.84 0
0.19999999999999996 -0.84 0
0.28 -0.84 0
0.3600000000000001 -0.84 0
0.43999999999999995 -0.84 0
0.52 -0.84 0
0.6000000000000001 -0.84 0
0.6799999999999999 -0.84 0
0.76 -0.84 0
0.8400000000000001 -0.84 0
0.9199999999999999 -0.84 0
1 -0.84 0
-1 -0.76 0
-0.92 -0.76 0
-0.84 -0.76 0
-0.76 -0.76 0
-0.6799999999999999 -0.76 0
-0.6 -0.76 0
-0.52 -0.76 0
-0.43999999999999995 -0.76 0
-0.36 -0.76 0
-0.28 -0.76 0
-0.19999999999999996 -0.76 0
-0.12 -0.76 0
-0.040000000000000036 -0.76 0
0.040000000000000036 -0.76 0
0.1200000000000001 -0.76 0
0.19999999999999996 -0.76 0
0.28 -0.76 0
0.3600000000000001 -0.76 0
0.43999999999999995 -0.76 0
0.52 -0.76 0
0.6000000000000001 -0.76 0
0.6799999999999999 -0.76 0
0.76 -0.76 0
0.8400000000000001 -0.76 0
0.9199999999999999 -0.76 0
1 -0.76 0
-1 -0.6799999999999999 0
-0.92 -0.6799999999999999 0
-0.84 -0.6799999999999999 0
-0.76 -0.6799999999999999 0
-0.6799999999999999 -0.6799999999999999 0
-0.6 -0.6799999999999999 0
-0.52 -0.6799999999999999 0
-0.43999999999999995 -0.6799999999999999 0
-0.36 -0.6799999999999999 0
-0.28 -0.6799999999999999 0
-0.19999999999999996 -0.6799999999999999 0
-0.12 -0.6799999999999999 0
-0.040000000000000036 -0.6799999999999999 0
0.040000000000000036 -0.6799999999999999 0
0.1200000000000001 -0.6799999999999999 0
0.19999999999999996 -0.6799999999999999 0
0.28 -0.6799999999999999 0
0.3600000000000001 -0.6799999999999999 0
0.43999999999999995 -0.6799999999999999 0
0.52 -0.6799999999999999 0
0.6000000000000001 -0.6799999999999999 0
0.6799999999999999 -0.6799999999999999 0
0.76 -0.6799999999999999 0
0.8400000000000001 -0.6799999999999999 0
0.9199999999999999 -0.6799999999999999 0
1 -0.6799999999999999 0
-1 -0.6 0
-0.92 -0.6 0
-0.84 -0.6 0
-0.76 -0.6 0
-0.6799999999999999 -0.6 0
-0.6 -0.6 0
-0.52 -0.6 0
-0.43999999999999995 -0.6 0
-0.36 -0.6 0
-0.28 -0.6 0
-0.19999999999999996 -0.6 0
-0.12 -0.6 0
-0.040000000000000036 -0.6 0
0.040000000000000036 -0.6 0
0.1200000000000001 -0.6 0
0.19999999999999996 -0.6 0
0.28 -0.6 0
0.3600000000000001 -0.6 0
0.43999999999999995 -0.6 0
0.52 -0.6 0
0.6000000000000001 -0.6 0
0.6799999999999999 -0.6 0
0.76 -0.6 0
0.8400000000000001 -0.6 0
0.9199999999999999 -0.6 0
1 -0.6 0
-1 -0.52 0
-0.92 -0.52 0
-0.84 -0.52 0
-0.76 -0.52 0
-0.6799999999999999 -0.52 0
-0.6 -0.52 0
-0.52 -0.52 0
-0.43999999999999995 -0.52 0
-0.36 -0.52 0
-0.28 -0.52 0
-0.19999999999999996 -0.52 0
-0.12 -0.52 0
-0.040000000000000036 -0.52 0
0.040000000000000036 -0.52 0
0.1200000000000001 -0.52 0
0.19999999999999996 -0.52 0
0.28 -0.52 0
0.3600000000000001 -0.52 0
0.43999999999999995 -0.52 0
0.52 -0.52 0
0.6000000000000001 -0.52 0
0.6799999999999999 -0.52 0
0.76 -0.52 0
0.8400000000000001 -0.52 0
0.9199999999999999 -0.52 0
1 -0.52 0
-1 -0.43999999999999995 0
-0.92 -0.43999999999999995 0
-0.84 -0.43999999999999995 0
-0.76 -0.43999999999999995 0
-0.6799999999999999 -0.43999999999999995 0
-0.6 -0.43999999999999995 0
-0.52 -0.43999999999999995 0
-0.43999999999999995 -0.43999999999999995 0
-0.36 -0.43999999999999995 0
-0.28 -0.43999999999999995 0
-0.19999999999999996 -0.43999999999999995 0
-0.12 -0.43999999999999995 0
-0.040000000000000036 -0.43999999999999995 0
0.040000000000000036 -0.43999999999999995 0
0.1200000000000001 -0.43999999999999995 0
0.19999999999999996 -0.43999999999999995 0
0.28 -0.43999999999999995 0
0.3600000000000001 -0.43999999999999995 0
0.43999999999999995 -0.43999999999999995 0
0.52 -0.43999999999999995 0
0.6000000000000001 -0.43999999999999995 0
0.6799999999999999 -0.43999999999999995 0
0.76 -0.43999999999999995 0
0.8400000000000001 -0.43999999999999995 0
0.9199999999999999 -0.43999999999999995 0
1 -0.43999999999999995 0
-1 -0.36 0
-0.92 -0.36 0
-0.84 -0.36 0
-0.76 -0.36 0
-0.6799999999999999 -0.36 0
-0.6 -0.36 0
-0.52 -0.36 0
-0.43999999999999995 -0.36 0
-0.36 -0.36 0
-0.28 -0.36 0
-0.19999999999999996 -0.36 0
-0.12 -0.36 0
-0.040000000000000036 -0.36 0
0.040000000000000036 -0.36 0
0.1200000000000001 -0.36 0
0.19999999999999996 -0.36 0
0.28 -0.36 0
0.3600000000000001 -0.36 0
0.43999999999999995 -0.36 0
0.52 -0.36 0
0.6000000000000001 -0.36 0
0.6799999999999999 -0.36 0
0.76 -0.36 0
0.8400000000000001 -0.36 0
0.9199999999999999 -0.36 0
1 -0.36 0
-1 -0.28 0
-0.92 -0.28 0
-0.84 -0.28 0
-0.76 -0.28 0
-0.6799999999999999 -0.28 0
-0.6 -0.28 0
-0.52 -0.28 0
-0.43999999999999995 -0.28 0
-0.36 -0.28 0
-0.28 -0.28 0
-0.19999999999999996 -0.28 0
-0.12 -0.28 0
-0.040000000000000036 -0.28 0
0.040000000000000036 -0.28 0
0.1200000000000001 -0.28 0
0.19999999999999996 -0.28 0
0.28 -0.28 0
0.3600000000000001 -0.28 0
0.43999999999999995 -0.28 0
0.52 -0.28 0
0.6000000000000001 -0.28 0
0.6799999999999999 -0.28 0
0.76 -0.28 0
0.8400000000000001 -0.28 0
0.9199999999999999 -0.28 0
1 -0.28 0
-1 -0.19999999999999996 0
-0.92 -0.19999999999999996 0
-0.84 -0.19999999999999996 0
-0.76 -0.19999999999999996 0
-0.6799999999999999 -0.19999999999999996 0
-0.6 -0.19999999999999996 0
-0.52 -0.19999999999999996 0
-0.43999999999999995 -0.19999999999999996 0
-0.36 -0.19999999999999996 0
-0.28 -0.19999999999999996 0
-0.19999999999999996 -0.19999999999999996 0
-0.12 -0.19999999999999996 0
-0.040000000000000036 -0.19999999999999996 0
0.040000000000000036 -0.19999999999999996 0
0.1200000000000001 -0.19999999999999996 0
0.19999999999999996 -0.19999999999999996 0
0.28 -0.19999999999999996 0
0.3600000000000001 -0.19999999999999996 0
0.43999999999999995 -0.19999999999999996 0
0.52 -0.19999999999999996 0
0.6000000000000001 -0.19999999999999996 0
0.6799999999999999 -0.19999999999999996 0
0.76 -0.19999999999999996 0
0.8400000000000001 -0.19999999999999996 0
0.9199999999999999 -0.19999999999999996 0
1 -0.19999999999999996 0
-1 -0.12 0
-0.92 -0.12 0
-0.84 -0.12 0
-0.76 -0.12 0
-0.6799999999999999 -0.12 0
-0.6 -0.12 0
-0.52 -0.12 0
-0.43999999999999995 -0.12 0
-0.36 -0.12 0
-0.28 -0.12 0
-0.19999999999999996 -0.12 0
-0.12 -0.12 0
-0.040000000000000036 -0.12 0
0.040000000000000036 -0.12 0
0.1200000000000001 -0.12 0
0.19999999999999996 -0.12 0
0.28 -0.12 0
0.3600000000000001 -0.12 0
0.43999999999999995 -0.12 0
0.52 -0.12 0
0.6000000000000001 -0.12 0
0.6799999999999999 -0.12 0
0.76 -0.12 0
0.8400000000000001 -0.12 0
0.9199999999999999 -0.12 0
1 -0.12 0
-1 -0.040000000000000036 0
-0.92 -0.040000000000000036 0
-0.84 -0.040000000000000036 0
-0.76 -0.040000000000000036 0
-0.6799999999999999 -0.040000000000000036 0
-0.6 -0.040000000000000036 0
-0.52 -0.040000000000000036 0
-0.43999999999999995 -0.040000000000000036 0
-0.36 -0.040000000000000036 0
-0.28 -0.040000000000000036 0
-0.19999999999999996 -0.040000000000000036 0
-0.12 -0.040000000000000036 0
-0.040000000000000036 -0.040000000000000036 0
0.040000000000000036 -0.040000000000000036 0
0.1200000000000001 -0.040000000000000036 0
0.19999999999999996 -0.040000000000000036 0
0.28 -0.040000000000000036 0
0.3600000000000001 -0.040000000000000036 0
0.43999999999999995 -0.040000000000000036 0
0.52 -0.040000000000000036 0
0.6000000000000001 -0.040000000000000036 0
0.6799999999999999 -0.040000000000000036 0
0.76 -0.040000000000000036 0
0.8400000000000001 -0.040000000000000036 0
0.9199999999999999 -0.040000000000000036 0
1 -0.040000000000000036 0
-1 0.040000000000000036 0
-0.92 0.040000000000000036 0
-0.84 0.040000000000000036 0
-0.76 0.040000000000000036 0
-0.6799999999999999 0.040000000000000036 0
-0.6 0.040000000000000036 0
-0.52 0.040000000000000036 0
-0.43999999999999995 0.040000000000000036 0
-0.36 0.040000000000000036 0
-0.28 0.040000000000000036 0
-0.19999999999999996 0.040000000000000036 0
-0.12 0.040000000000000036 0
-0.040000000000000036 0.040000000000000036 0
0.040000000000000036 0.040000000000000036 0
0.1200000000000001 0.040000000000000036 0
0.19999999999999996 0.040000000000000036 0
0.28 0.040000000000000036 0
0.3600000000000001 0.040000000000000036 0
0.43999999999999995 0.040000000000000036 0
0.52 0.040000000000000036 0
0.6000000000000001 0.040000000000000036 0
0.6799999999999999 0.040000000000000036 0
0.76 0.040000000000000036 0
0.8400000000000001 0.040000000000000036 0
0.9199999999999999 0.040000000000000036 0
1 0.040000000000000036 0
-1 0.1200000000000001 0
-0.92 0.1200000000000001 0
-0.84 0.1200000000000001 0
-0.76 0.1200000000000001 0
-0.6799999999999999 0.1200000000000001 0
-0.6 0.1200000000000001 0
-0.52 0.1200000000000001 0
-0.43999999999999995 0.1200000000000001 0
-0.36 0.1200000000000001 0
-0.28 0.1200000000000001 0
-0.19999999999999996 0.1200000000000001 0
-0.12 0.1200000000000001 0
-0.040000000000000036 0.1200000000000001 0
0.040000000000000036 0.1200000000000001 0
0.1200000000000001 0.1200000000000001 0
0.19999999999999996 0.1200000000000001 0
0.28 0.1200000000000001 0
[...]
POINT_DATA 676
SCALARS phi1 double 1
LOOKUP_TABLE default
1.2401434992741867
1.2001434992741868
1.1609157175503755
1.1256909506947848
1.095187166513904
1.0698082739058334
1.0487479207218748
1.0283968105745953
1.012719112093773
1.0031948963187562
1
1
1
1
1
1
1.0031948963187562
1.012719112093773
1.0283968105745953
1.0487479207218748
1.0698082739058334
1.095187166513904
1.1256909506947848
1.1609157175503755
1.2001434992741866
1.2401434992741867
1.171421795944093
1.1308614669714314
1.0908639688493993
1.0532991083991707
1.0206340308725323
0.9933522226258611
0.9714738546187495
0.950789145920377
0.9338094023943002
0.9234717104492156
0.92
0.92
0.92
0.92
0.92
0.92
0.9234717104492156
0.9338094023943002
0.950789145920377
0.9714738546187495
0.9933522226258612
1.0206340308725323
1.0532991083991707
1.0908639688493993
1.1308614669714314
1.171421795944093
1.104213710878127
1.0616021566351586
1.0215794346686764
0.9820885433772496
0.9469702847784996
0.9175006994406587
0.8941997885156239
0.8734942649074222
0.8551023330572779
0.8438009243891593
0.84
0.84
0.84
0.84
0.84
0.84
0.8438009243891593
0.855102333057278
0.8734942649074222
0.8941997885156239
0.9175006994406587
0.9469702847784996
0.9820885433772496
1.0215794346686764
1.0616021566351586
1.104213710878127
1.038819914407499
0.9934072851810478
0.9522974023659214
0.9122974023659215
0.8744207314169951
0.8424170159442754
0.8170197316913973
0.7962201988042968
0.776659513557904
0.764198926981712
0.76
0.76
0.76
0.76
0.76
0.76
0.764198926981712
0.776659513557904
0.7962201988042968
0.8170197316913973
0.8424170159442755
0.8744207314169951
0.9122974023659214
0.9522974023659214
0.9934072851810478
1.038819914407499
0.9756053043357048
0.9271013588217522
0.8831920228411911
0.8430153700631662
0.8032873152304798
0.768326313509317
0.7403918808654254
0.7189461327011714
0.6985699678629191
0.6846897107449476
0.6799999999999999
0.6799999999999999
0.6799999999999999
0.6799999999999999
0.6799999999999999
0.6799999999999999
0.6846897107449476
0.6985699678629191
0.7189461327011712
0.7403918808654254
0.768326313509317
0.8032873152304798
0.8430153700631662
0.8831920228411912
0.9271013588217522
0.9756053043357048
0.9150216418895908
0.863119820654988
0.8157738929928284
0.773733337760411
0.733733337760411
0.6955459864805325
0.6645592769120013
0.6416720665980459
0.6209669878504009
0.6053098380168622
0.6
0.6
0.6
0.6
0.6
0.6
0.6053098380168622
0.6209669878504009
0.6416720665980459
0.6645592769120013
0.6955459864805325
0.733733337760411
0.7737333377604112
0.8157738929928285
0.863119820654988
0.9150216418895908
0.8574990466559905
0.8020191519445521
0.7508301670597916
0.705022807750367
0.6644513054576561
0.6245343181823851
0.5898287275202538
0.5643980004949205
0.5436924768867188
0.5261178575186363
0.52
0.52
0.52
0.52
0.52
0.52
0.5261178575186363
0.5436924768867188
0.5643980004949205
0.5898287275202538
0.6245343181823853
0.6644513054576561
0.705022807750367
0.7508301670597918
0.8020191519445521
0.8574990466559906
0.8009305041610667
0.744361961666143
0.6890608355184571
0.638839615808671
0.595169273154901
0.5551692731549009
0.5166786458588368
0.48745424021865524
0.46641841078359325
0.44721359549995787
0.43999999999999995
0.43999999999999995
0.43999999999999995
0.43999999999999995
0.43999999999999995
0.43999999999999995
0.44721359549995787
0.4664184107835933
0.48745424021865524
0.5166786458588368
0.5551692731549009
0.595169273154901
0.638839615808671
0.6890608355184572
0.744361961666143
0.8009305041610668
0.744885842809793
0.6877934191712192
0.6312248766762955
0.576172673774911
0.5273387617899011
0.4858872408521458
0.44588724085214587
0.4116679870787941
0.3891443446804679
0.3687817782917155
0.36
0.36
0.36
0.36
0.36
0.36
0.3687817782917155
0.3891443446804679
0.4116679870787941
0.44588724085214587
0.48588724085214585
0.5273387617899011
0.576172673774911
0.6312248766762955
0.6877934191712192
0.744885842809793
0.6929647217556104
0.631842570406578
0.5746563341813716
0.5180877916864478
0.46340593971642813
0.4167208713823222
0.3766052085493908
0.3378304705971116
0.31187027857734245
0.2911647549691408
0.28
0.28
0.28
0.28
0.28
0.28
0.2911647549691408
0.3118702785773425
0.3378304705971116
0.3766052085493908
0.4167208713823223
0.46340593971642813
0.5180877916864478
0.5746563341813716
0.6318425704065779
0.6929647217556104
0.646796175295746
0.5808357948313502
0.5188401957612065
0.46151924919152393
0.4049507066966001
0.3508777278825226
0.30732317624663563
0.2673231762466356
0.23461273486929607
0.21389068886601525
0.19999999999999996
0.19999999999999996
0.19999999999999996
0.19999999999999996
0.19999999999999996
0.19999999999999996
0.21389068886601525
0.23461273486929612
0.2673231762466356
0.30732317624663563
0.35087772788252264
0.4049507066966001
0.46151924919152393
0.5188401957612067
0.5808357948313501
0.646796175295746
0.607692750620394
0.5369500976224338
0.46919115029687214
0.40591287697862327
0.3483821642016763
0.29181362170675257
0.23892529142712665
0.1980411439438805
0.15906612034374354
0.13661662276288983
0.12
0.12
0.12
0.12
0.12
0.12
0.13661662276288983
0.1590661203437436
0.1980411439438805
0.23892529142712665
0.2918136217067526
0.34838216420167634
0.40591287697862327
0.4691911502968722
0.5369500976224337
0.607692750620394
0.5770924240847
0.5020563654771406
0.42881875226752497
0.3584835428251036
0.2931473667911734
0.23524507921182877
0.17867653671690503
0.12875911164112544
0.08875911164112547
0.05934255665976442
0.040000000000000036
0.040000000000000036
0.040000000000000036
0.040000000000000036
0.040000000000000036
0.040000000000000036
0.05934255665976442
0.08875911164112553
0.12875911164112544
0.17867653671690503
0.23524507921182883
0.2931473667911734
0.3584835428251036
0.4288187522675251
0.5020563654771405
0.5770924240847
0.5563999035903314
0.478127368904449
0.4005380245066027
0.3241228737004113
0.2499611278498592
0.18084660244564882
0.12210799422198114
0.0655394517270573
0.01947707933837031
0.01793150944336111
0.038637033051562776
0.040000000000000036
0.040000000000000036
0.040000000000000036
0.040000000000000036
0.038637033051562776
0.01793150944336111
0.019477079338370364
0.0655394517270573
0.12210799422198114
0.1808466024456489
0.2499611278498592
0.3241228737004113
0.4005380245066028
0.4781273689044489
0.5563999035903314
0.5467412911923747
0.46685219039313286
0.3870089092708678
0.3072471709148641
0.22765270087426717
0.14849471504235248
0.07124330547967551
0.008970909232133431
0.047597633262790325
0.08980495296438482
0.11591109915468831
0.1200000000000001
0.1200000000000001
0.1200000000000001
0.1200000000000001
0.1159110991546883
0.08980495296438483
0.047597633262790234
0.008970909232133428
0.07124330547967551
0.1484947150423526
0.22765270087426717
0.3072471709148641
0.3870089092708679
0.46685219039313275
0.5467412911923747
0.5486995774320224
0.46914406577749745
0.3897705512662568
0.31071853954111367
0.23231646302990125
0.1555502078908427
0.08497526319491619
0.05518807421179111
0.10416617575771404
0.1590869852671398
0.19318516525781362
0.19999999999999996
0.19999999999999996
0.19999999999999996
0.19999999999999996
0.19318516525781362
0.1590869852671398
0.10416617575771397
0.05518807421179111
0.08497526319491619
0.1555502078908428
0.23231646302990125
0.31071853954111367
0.38977055126625687
0.4691440657774974
0.5486995774320224
0.5621533714685476
0.48481062409317704
0.4084926797554353
0.3339029763178782
0.262518810324324
0.19784098148325918
0.14888244401009879
0.13413019911481935
0.16314361309822084
0.21730326074756168
0.268369017569895
0.28
0.28
0.28
0.28
0.268369017569895
0.21730326074756168
0.16314361309822076
0.13413019911481935
0.14888244401009879
0.19784098148325927
0.262518810324324
0.3339029763178782
0.4084926797554354
0.48481062409317693
0.5621533714685476
0.5863118622651514
0.5126270847438621
0.4411478847202507
0.37314391911608646
0.3109040246659302
0.2586237435612482
0.22340807710061683
0.21385999414092396
0.23315450944409571
0.27529248710104276
0.3304403457374094
0.3600000000000001
0.3600000000000001
0.3600000000000001
0.3600000000000001
0.3304403457374094
0.27529248710104276
0.2331545094440957
0.21385999414092396
0.22340807710061683
0.25862374356124823
0.3109040246659302
0.37314391911608646
0.44114788472025074
0.512627084743862
0.5863118622651514
0.6199248233553845
0.5507555853483155
0.484929523717134
0.4240065697046301
0.37041395671984095
0.3277673374712757
0.30075963108962944
0.29373675948599093
0.30806851843947275
0.34107351148052034
0.38801555176798463
0.43999999999999995
0.43999999999999995
0.43999999999999995
0.43999999999999995
0.38801555176798463
0.34107351148052034
0.3080685184394727
0.29373675948599093
0.30075963108962944
0.3277673374712757
0.37041395671984095
0.4240065697046301
0.4849295237171341
0.5507555853483154
0.6199248233553845
0.6615526988771036
0.597224331027915
0.5371236633698997
0.4828320183377054
0.4365222630201387
0.40096959272790755
0.37921173831059735
0.37366625570514905
0.38503428267216244
0.41191786440142114
0.4515542660557959
0.5009253271430277
0.52
0.52
0.5009253271430276
0.4515542660557959
0.41191786440142114
0.38503428267216244
0.37366625570514905
0.37921173831059735
0.40096959272790755
0.4365222630201387
0.4828320183377054
0.5371236633698998
0.597224331027915
0.6615526988771036
0.7097867004748359
0.6502477130687316
0.5955224735736481
0.5470575332736377
0.5066526155973126
0.476363097932406
0.45819944265780155
0.4536206095759769
0.4630297891197085
0.4856145732907967
0.5196599291580635
0.5630909075386712
0.6000000000000001
0.6000000000000001
0.5630909075386712
0.5196599291580635
0.4856145732907967
0.4630297891197085
0.4536206095759769
0.45819944265780155
0.47636309793240605
0.5066526155973126
0.5470575332736377
0.5955224735736482
0.6502477130687315
0.7097867004748359
0.7633756263795233
0.7083553311230815
0.6584771851101989
0.614993602804787
0.5793462347085488
0.553052427759913
0.5374866659102296
0.5335886470039028
0.5416103510750294
0.5610407298688549
0.5907551343424264
0.6292984641107106
0.6751603402987028
0.6751603402987028
0.6292984641107104
0.5907551343424264
0.5610407298688549
0.5416103510750293
0.5335886470039028
0.5374866659102296
0.5530524277599131
0.5793462347085488
0.614993602804787
0.658477185110199
0.7083553311230814
0.7633756263795233
0.8212719000000576
0.7703975998858417
0.7248016211971564
0.6855379772632492
0.6537486110504159
0.6305649646392582
0.6169579424974362
0.6135650177371837
0.6205537520400563
0.6375828474411404
0.6638801213557409
0.6983994156007536
0.739990994466578
0.739990994466578
0.6983994156007536
0.6638801213557409
0.6375828474411404
0.6205537520400561
0.6135650177371837
0.6169579424974362
0.6305649646392582
0.6537486110504159
0.6855379772632492
0.7248016211971564
0.7703975998858416
0.8212719000000576
0.8826283025765033
0.8354984432596152
0.7936514202528722
0.7579627332854579
0.7293369819429993
0.7086306240982561
0.6965502778622982
0.6935468389158772
0.6997371977752552
0.7148825596771315
0.7384321243761598
0.7696147935758831
0.8075468151574929
0.8075468151574929
0.7696147935758831
0.7384321243761598
0.7148825596771315
0.6997371977752551
0.6935468389158772
0.6965502778622982
0.7086306240982562
0.7293369819429993
0.7579627332854579
0.7936514202528723
0.8354984432596151
0.8826283025765033
0.9467723629724593
0.9029965866317631
0.8644233706053857
0.8317768281389767
0.8057776492364985
0.7870848417986835
0.7762264336966498
0.7735324198439134
0.779087500047165
0.7927182733543501
0.8140191576922886
0.8424085216035174
0.8771984071180161
0.8771984071180161
0.8424085216035174
0.8140191576922886
0.7927182733543501
0.779087500047165
0.7735324198439134
0.7762264336966498
0.7870848417986835
0.8057776492364985
0.8317768281389767
0.8644233706053858
0.902996586631763
0.9467723629724593
1.0131747598849021
0.972392936136411
0.9366818832603474
0.9066409866139473
0.882849254849588
0.865821999586886
0.8559630033761941
0.8535207035151259
0.8585583960972698
0.8709462943771431
0.8903776591252939
0.9164045526128725
0.948484176056596
0.948484176056596
0.9164045526128725
0.8903776591252939
0.8709462943771431
0.8585583960972698
0.8535207035151259
0.8559630033761941
0.865821999586886
0.882849254849588
0.9066409866139473
0.9366818832603474
0.9723929361364109
1.0131747598849021

SCALARS phi2 double 1
LOOKUP_TABLE default
1.2699974112506907
1.2377068929127029
1.2098525864516627
1.1867469018809103
1.1686715266934928
1.155862476890854
1.148495970243005
1.1466769038594011
1.1504315929357742
1.159705901599584
1.1743690673655642
1.1942226067887116
1.2190129460942516
1.2190129460942516
1.1942226067887116
1.1743690673655642
1.159705901599584
1.1504315929357742
1.1466769038594011
1.148495970243005
1.1558624768908543
1.1686715266934928
1.1867469018809103
1.2098525864516627
1.2377068929127029
1.2699974112506907
1.1982648335667836
1.1639860564212066
1.1343229115746332
1.109645617259544
1.0902927698941578
1.076551555785247
1.0686384704116714
1.0666832278722478
1.0707184675740484
1.0806770863603425
1.0963976893283023
1.1176371599694603
1.1440881738418425
1.1440881738418425
1.1176371599694603
1.0963976893283023
1.0806770863603425
1.0707184675740484
1.0666832278722478
1.0686384704116714
1.076551555785247
1.0902927698941578
1.109645617259544
1.1343229115746332
1.1639860564212066
1.1982648335667836
1.127645244809823
1.091150185044372
1.0594496941820917
1.0329852770890247
1.0121677286215214
0.997350710153159
0.9888040084987375
0.9866905773358395
0.9910515746334765
1.0018024514661832
1.018740928766394
1.0415651722883095
1.0698985635583107
1.0698985635583107
1.0415651722883095
1.018740928766394
1.0018024514661832
0.9910515746334765
0.9866905773358395
0.9888040084987375
0.997350710153159
1.0121677286215214
1.0329852770890247
1.059449694182092
1.091150185044372
1.127645244809823
1.0583614623187962
1.0193889900826583
0.985382586248561
0.9568718667941197
0.9343600471136512
0.9182884219145886
0.9089986545658614
0.906699223658379
0.9114430373659498
0.9231215188386787
0.9414766416237792
0.9661279392002649
0.9966083097604151
0.9966083097604151
0.9661279392002649
0.9414766416237792
0.9231215188386787
0.9114430373659498
0.906699223658379
0.9089986545658614
0.9182884219145886
0.9343600471136512
0.9568718667941197
0.985382586248561
1.0193889900826583
1.0583614623187962
0.9906937830131749
0.948946310325888
0.9123179424198986
0.8814470807946659
0.8569561741545475
0.8394038435709954
0.8292308127306419
0.8267095432871704
0.8319096087570108
0.8446884190767645
0.8647100401305425
0.8914866132941792
0.9244313440504309
0.9244313440504309
0.8914866132941792
0.8647100401305425
0.8446884190767645
0.8319096087570108
0.8267095432871704
0.8292308127306419
0.8394038435709954
0.8569561741545475
0.8814470807946659
0.9123179424198987
0.948946310325888
0.9906937830131749
0.924996950524882
0.8801387882944892
0.8405172305435817
0.806904048211938
0.7800763239587357
0.7607522588735016
0.7495124599106383
0.7467220739615624
0.7524751051839642
0.7665792275438846
0.788586482436733
0.8178591372981662
0.8536501019986242
0.8536501019986242
0.8178591372981661
0.788586482436733
0.7665792275438846
0.7524751051839642
0.7467220739615624
0.7495124599106383
0.7607522588735016
0.7800763239587357
0.806904048211938
0.8405172305435817
0.8801387882944892
0.924996950524882
0.8617218491251719
0.8133815054695224
0.7703339546067195
0.7335116425798491
0.7038922204289156
0.6824142335565035
0.6698612649949771
0.6667376114490856
0.6731745469794538
0.6889041289476742
0.7133118722279298
0.7455459444202452
0.7846423920625474
0.7846423920625474
0.7455459444202452
0.7133118722279298
0.6889041289476742
0.6731745469794537
0.6667376114490856
0.6698612649949771
0.6824142335565035
0.7038922204289156
0.7335116425798491
0.7703339546067196
0.8133815054695223
0.8617218491251719
0.8014422824128263
0.749222704020134
0.7022532224200912
0.6616528671286501
0.6286568577210655
0.6045116813924152
0.5903044139425402
0.5867573853819027
0.5940615771789719
0.611828477320669
0.6391862121797445
0.6749695859969176
0.7179198215685447
0.7179198215685447
0.6749695859969175
0.6391862121797445
0.611828477320669
0.5940615771789719
0.5867573853819027
0.5903044139425402
0.6045116813924153
0.6286568577210655
0.6616528671286501
0.7022532224200914
0.749222704020134
0.8014422824128263
0.744885842809793
0.6883893135418478
0.6369495860574661
0.5918865629146672
0.5547563713370934
0.5272376691011939
0.510885983267716
0.5067834015430871
0.5152226162153043
0.5356111205342021
0.566660569141761
0.6067364574510299
0.6541819754322082
0.6541819754322082
0.6067364574510298
0.566660569141761
0.5356111205342021
0.5152226162153042
0.5067834015430871
0.510885983267716
0.527237669101194
0.5547563713370934
0.5918865629146672
0.6369495860574661
0.6883893135418478
0.744885842809793
0.6929647217556104
0.631842570406578
0.5753694134711649
0.5250475122675216
0.48280412003055034
0.45091545382547593
0.4316823770769382
0.42681916880449117
0.4368060565504073
0.46067825998117
0.4964366902228716
0.5417326975359714
0.5943898079204935
0.5943898079204935
0.5417326975359713
0.4964366902228716
0.46067825998117
0.4368060565504073
0.42681916880449117
0.4316823770769382
0.450915453825476
0.48280412003055034
0.5250475122675216
0.5753694134711649
0.6318425704065779
0.6929647217556104
0.646796175295746
0.5808357948313502
0.5188401957612065
0.46240683052663484
0.4138175988256769
0.37612489053239984
0.35283829363912683
0.34687143099184686
0.3590887325139741
0.38777525191617546
0.42964470691353135
0.4812686384535929
0.5398559349855626
0.5398559349855626
0.4812686384535928
0.42964470691353135
0.38777525191617546
0.3590887325139741
0.34687143099184686
0.35283829363912683
0.37612489053239995
0.4138175988256769
0.46240683052663484
0.5188401957612067
0.5808357948313501
0.646796175295746
0.607692750620394
0.5369500976224338
0.46919115029687214
0.40591287697862327
0.3495571367848521
0.30399855272251664
0.27466351821373297
0.2669550082274287
0.2826480224552569
0.3182999101131325
0.3681572503132176
0.42727589346738254
0.49233080070061724
0.49233080070061724
0.4272758934673825
0.3681572503132176
0.3182999101131325
0.28264802245525683
0.2669550082274287
0.27466351821373297
0.3039985527225167
0.3495571367848521
0.40591287697862327
0.4691911502968722
0.5369500976224337
0.607692750620394
0.5770924240847
0.5020563654771406
0.42881875226752497
0.3584835428251036
0.2931473667911734
0.23698165928349743
0.1979526080073727
0.18711002965389492
0.2088901418862133
0.25506865655623623
0.31509514077110756
0.38250473973236593
0.45402070888659457
0.45402070888659457
0.3825047397323658
0.31509514077110756
0.25506865655623623
0.20889014188621327
0.18711002965389492
0.1979526080073727
0.2369816592834975
0.2931473667911734
0.3584835428251036
0.4288187522675251
0.5020563654771405
0.5770924240847
0.5563999035903314
0.478127368904449
0.4005380245066027
0.3241228737004113
0.2499611278498592
0.18084660244564882
0.12542097829428475
0.10749581376247325
0.14205730588962054
0.20397354322749334
0.2753727192677935
0.35050686540651366
0.42741079873730464
0.42741079873730464
0.35050686540651355
0.2753727192677935
0.20397354322749334
0.14205730588962046
0.10749581376247325
0.12542097829428475
0.1808466024456489
0.2499611278498592
0.3241228737004113
0.4005380245066028
0.4781273689044489
0.5563999035903314
0.5467412911923747
0.46685219039313286
0.3870089092708678
0.3072471709148641
0.22765270087426717
0.14849471504235248
0.07124330547967551
0.030008944597090508
0.09759848838989328
0.17592723813029354
0.2552945774910112
0.33496305688310585
0.41475918031628384
0.41475918031628384
0.33496305688310574
0.2552945774910112
0.17592723813029354
0.09759848838989317
0.030008944597090508
0.07124330547967551
0.1484947150423526
0.22765270087426717
0.3072471709148641
0.3870089092708679
0.46685219039313275
0.5467412911923747
0.5486995774320224
0.46914406577749745
0.3897705512662568
0.31071853954111367
0.23231646302990125
0.1555502078908427
0.08497526319491619
0.05518807421179111
0.10803079058938266
0.18192190603533134
0.2594619588218836
0.3381500203398629
0.41733723106860543
0.41733723106860543
0.3381500203398628
0.2594619588218836
0.18192190603533134
0.10803079058938256
0.05518807421179111
0.08497526319491619