# vtk DataFile Version 4.1
Header:
ASCII

DATASET UNSTRUCTURED_GRID
POINTS 484 double
-1 -1 0
-0.9047619047619048 -1 0
-0.8095238095238095 -1 0
-0.7142857142857143 -1 0
-0.6190476190476191 -1 0
-0.5238095238095238 -1 0
-0.4285714285714286 -1 0
-0.33333333333333337 -1 0
-0.23809523809523814 -1 0
-0.1428571428571429 -1 0
-0.04761904761904767 -1 0
0.04761904761904745 -1 0
0.1428571428571428 -1 0
0.23809523809523814 -1 0
0.33333333333333326 -1 0
0.4285714285714284 -1 0
0.5238095238095237 -1 0
0.6190476190476191 -1 0
0.7142857142857142 -1 0
0.8095238095238093 -1 0
0.9047619047619047 -1 0
1 -1 0
-1 -0.9047619047619048 0
-0.9047619047619048 -0.9047619047619048 0
-0.8095238095238095 -0.9047619047619048 0
-0.7142857142857143 -0.9047619047619048 0
-0.6190476190476191 -0.9047619047619048 0
-0.5238095238095238 -0.9047619047619048 0
-0.4285714285714286 -0.9047619047619048 0
-0.33333333333333337 -0.9047619047619048 0
-0.23809523809523814 -0.9047619047619048 0
-0.1428571428571429 -0.9047619047619048 0
-0.04761904761904767 -0.9047619047619048 0
0.04761904761904745 -0.9047619047619048 0
0.1428571428571428 -0.9047619047619048 0
0.23809523809523814 -0.9047619047619048 0
0.33333333333333326 -0.9047619047619048 0
0.4285714285714284 -0.9047619047619048 0
0.5238095238095237 -0.9047619047619048 0
0.6190476190476191 -0.9047619047619048 0
0.7142857142857142 -0.9047619047619048 0
0.8095238095238093 -0.9047619047619048 0
0.9047619047619047 -0.9047619047619048 0
1 -0.9047619047619048 0
-1 -0.8095238095238095 0
-0.9047619047619048 -0.8095238095238095 0
-0.8095238095238095 -0.8095238095238095 0
-0.7142857142857143 -0.8095238095238095 0
-0.6190476190476191 -0.8095238095238095 0
-0.5238095238095238 -0.8095238095238095 0
-0.4285714285714286 -0.8095238095238095 0
-0.33333333333333337 -0.8095238095238095 0
-0.23809523809523814 -0.8095238095238095 0
-0.1428571428571429 -0.8095238095238095 0
-0.04761904761904767 -0.8095238095238095 0
0.04761904761904745 -0.8095238095238095 0
0.1428571428571428 -0.8095238095238095 0
0.23809523809523814 -0.8095238095238095 0
0.33333333333333326 -0.8095238095238095 0
0.4285714285714284 -0.8095238095238095 0
0.5238095238095237 -0.8095238095238095 0
0.6190476190476191 -0.8095238095238095 0
0.7142857142857142 -0.8095238095238095 0
0.8095238095238093 -0.8095238095238095 0
0.9047619047619047 -0.8095238095238095 0
1 -0.8095238095238095 0
-1 -0.7142857142857143 0
-0.9047619047619048 -0.7142857142857143 0
-0.8095238095238095 -0.7142857142857143 0
-0.7142857142857143 -0.7142857142857143 0
-0.6190476190476191 -0.7142857142857143 0
-0.5238095238095238 -0.7142857142857143 0
-0.4285714285714286 -0.7142857142857143 0
-0.33333333333333337 -0.7142857142857143 0
-0.23809523809523814 -0.7142857142857143 0
-0.1428571428571429 -0.7142857142857143 0
-0.04761904761904767 -0.7142857142857143 0
0.04761904761904745 -0.7142857142857143 0
0.1428571428571428 -0.7142857142857143 0
0.23809523809523814 -0.7142857142857143 0
0.33333333333333326 -0.7142857142857143 0
0.4285714285714284 -0.7142857142857143 0
0.5238095238095237 -0.7142857142857143 0
0.6190476190476191 -0.7142857142857143 0
0.7142857142857142 -0.7142857142857143 0
0.8095238095238093 -0.7142857142857143 0
0.9047619047619047 -0.7142857142857143 0
1 -0.7142857142857143 0
-1 -0.6190476190476191 0
-0.9047619047619048 -0.6190476190476191 0
-0.8095238095238095 -0.6190476190476191 0
-0.7142857142857143 -0.6190476190476191 0
-0.6190476190476191 -0.6190476190476191 0
-0.5238095238095238 -0.6190476190476191 0
-0.4285714285714286 -0.6190476190476191 0
-0.33333333333333337 -0.6190476190476191 0
-0.23809523809523814 -0.6190476190476191 0
-0.1428571428571429 -0.6190476190476191 0
-0.04761904761904767 -0.6190476190476191 0
0.04761904761904745 -0.6190476190476191 0
0.1428571428571428 -0.6190476190476191 0
0.23809523809523814 -0.6190476190476191 0
0.33333333333333326 -0.6190476190476191 0
0.4285714285714284 -0.6190476190476191 0
0.5238095238095237 -0.6190476190476191 0
0.6190476190476191 -0.6190476190476191 0
0.7142857142857142 -0.6190476190476191 0
0.8095238095238093 -0.6190476190476191 0
0.9047619047619047 -0.6190476190476191 0
1 -0.6190476190476191 0
-1 -0.5238095238095238 0
-0.9047619047619048 -0.5238095238095238 0
-0.8095238095238095 -0.5238095238095238 0
-0.7142857142857143 -0.5238095238095238 0
-0.6190476190476191 -0.5238095238095238 0
-0.5238095238095238 -0.5238095238095238 0
-0.4285714285714286 -0.5238095238095238 0
-0.33333333333333337 -0.5238095238095238 0
-0.23809523809523814 -0.5238095238095238 0
-0.1428571428571429 -0.5238095238095238 0
-0.04761904761904767 -0.5238095238095238 0
0.04761904761904745 -0.5238095238095238 0
0.1428571428571428 -0.5238095238095238 0
0.23809523809523814 -0.5238095238095238 0
0.33333333333333326 -0.5238095238095238 0
0.4285714285714284 -0.5238095238095238 0
0.5238095238095237 -0.5238095238095238 0
0.6190476190476191 -0.5238095238095238 0
0.7142857142857142 -0.5238095238095238 0
0.8095238095238093 -0.5238095238095238 0
0.9047619047619047 -0.5238095238095238 0
1 -0.5238095238095238 0
-1 -0.4285714285714286 0
-0.9047619047619048 -0.4285714285714286 0
-0.8095238095238095 -0.4285714285714286 0
-0.7142857142857143 -0.4285714285714286 0
-0.6190476190476191 -0.4285714285714286 0
-0.5238095238095238 -0.4285714285714286 0
-0.4285714285714286 -0.4285714285714286 0
-0.33333333333333337 -0.4285714285714286 0
-0.23809523809523814 -0.4285714285714286 0
-0.1428571428571429 -0.4285714285714286 0
-0.04761904761904767 -0.4285714285714286 0
0.04761904761904745 -0.4285714285714286 0
0.1428571428571428 -0.4285714285714286 0
0.23809523809523814 -0.4285714285714286 0
0.33333333333333326 -0.4285714285714286 0
0.4285714285714284 -0.4285714285714286 0
0.5238095238095237 -0.4285714285714286 0
0.6190476190476191 -0.4285714285714286 0
0.7142857142857142 -0.4285714285714286 0
0.8095238095238093 -0.4285714285714286 0
0.9047619047619047 -0.4285714285714286 0
1 -0.4285714285714286 0
-1 -0.33333333333333337 0
-0.9047619047619048 -0.33333333333333337 0
-0.8095238095238095 -0.33333333333333337 0
-0.7142857142857143 -0.33333333333333337 0
-0.6190476190476191 -0.33333333333333337 0
-0.5238095238095238 -0.33333333333333337 0
-0.4285714285714286 -0.33333333333333337 0
-0.33333333333333337 -0.33333333333333337 0
-0.23809523809523814 -0.33333333333333337 0
-0.1428571428571429 -0.33333333333333337 0
-0.04761904761904767 -0.33333333333333337 0
0.04761904761904745 -0.33333333333333337 0
0.1428571428571428 -0.33333333333333337 0
0.23809523809523814 -0.33333333333333337 0
0.33333333333333326 -0.33333333333333337 0
0.4285714285714284 -0.33333333333333337 0
0.5238095238095237 -0.33333333333333337 0
0.6190476190476191 -0.33333333333333337 0
0.7142857142857142 -0.33333333333333337 0
0.8095238095238093 -0.33333333333333337 0
0.9047619047619047 -0.33333333333333337 0
1 -0.33333333333333337 0
-1 -0.23809523809523814 0
-0.9047619047619048 -0.23809523809523814 0
-0.8095238095238095 -0.23809523809523814 0
-0.7142857142857143 -0.23809523809523814 0
-0.6190476190476191 -0.23809523809523814 0
-0.5238095238095238 -0.23809523809523814 0
-0.4285714285714286 -0.23809523809523814 0
-0.33333333333333337 -0.23809523809523814 0
-0.23809523809523814 -0.23809523809523814 0
-0.1428571428571429 -0.23809523809523814 0
-0.04761904761904767 -0.23809523809523814 0
0.04761904761904745 -0.23809523809523814 0
0.1428571428571428 -0.23809523809523814 0
0.23809523809523814 -0.23809523809523814 0
0.33333333333333326 -0.23809523809523814 0
0.4285714285714284 -0.23809523809523814 0
0.5238095238095237 -0.23809523809523814 0
0.6190476190476191 -0.23809523809523814 0
0.7142857142857142 -0.23809523809523814 0
0.8095238095238093 -0.23809523809523814 0
0.9047619047619047 -0.23809523809523814 0
1 -0.23809523809523814 0
-1 -0.1428571428571429 0
-0.9047619047619048 -0.1428571428571429 0
-0.8095238095238095 -0.1428571428571429 0
-0.7142857142857143 -0.1428571428571429 0
-0.6190476190476191 -0.1428571428571429 0
-0.5238095238095238 -0.1428571428571429 0
-0.4285714285714286 -0.1428571428571429 0
-0.33333333333333337 -0.1428571428571429 0
-0.23809523809523814 -0.1428571428571429 0
-0.1428571428571429 -0.1428571428571429 0
-0.04761904761904767 -0.1428571428571429 0
0.04761904761904745 -0.1428571428571429 0
0.1428571428571428 -0.1428571428571429 0
0.23809523809523814 -0.1428571428571429 0
0.33333333333333326 -0.1428571428571429 0
0.4285714285714284 -0.1428571428571429 0
0.5238095238095237 -0.1428571428571429 0
0.6190476190476191 -0.1428571428571429 0
0.7142857142857142 -0.1428571428571429 0
0.8095238095238093 -0.1428571428571429 0
0.9047619047619047 -0.1428571428571429 0
1 -0.1428571428571429 0
-1 -0.04761904761904767 0
-0.9047619047619048 -0.04761904761904767 0
-0.8095238095238095 -0.04761904761904767 0
-0.7142857142857143 -0.04761904761904767 0
-0.6190476190476191 -0.04761904761904767 0
-0.5238095238095238 -0.04761904761904767 0
-0.4285714285714286 -0.04761904761904767 0
-0.33333333333333337 -0.04761904761904767 0
-0.23809523809523814 -0.04761904761904767 0
-0.1428571428571429 -0.04761904761904767 0
-0.04761904761904767 -0.04761904761904767 0
0.04761904761904745 -0.04761904761904767 0
0.1428571428571428 -0.04761904761904767 0
0.23809523809523814 -0.04761904761904767 0
0.33333333333333326 -0.04761904761904767 0
0.4285714285714284 -0.04761904761904767 0
0.5238095238095237 -0.04761904761904767 0
0.6190476190476191 -0.04761904761904767 0
0.7142857142857142 -0.04761904761904767 0
0.8095238095238093 -0.04761904761904767 0
0.9047619047619047 -0.04761904761904767 0
1 -0.04761904761904767 0
-1 0.04761904761904745 0
-0.9047619047619048 0.04761904761904745 0
-0.8095238095238095 0.04761904761904745 0
-0.7142857142857143 0.04761904761904745 0
-0.6190476190476191 0.04761904761904745 0
-0.5238095238095238 0.04761904761904745 0
-0.4285714285714286 0.04761904761904745 0
-0.33333333333333337 0.04761904761904745 0
-0.23809523809523814 0.04761904761904745 0
-0.1428571428571429 0.04761904761904745 0
-0.04761904761904767 0.04761904761904745 0
[...]
POINT_DATA 484
SCALARS phi1 double 1
LOOKUP_TABLE default
1.2401434992741867
1.192524451655139
1.146966488405608
1.1076557381401737
1.0753654878753434
1.0497338980365511
1.0257898897723567
1.0088497300281039
1.0007253605088324
1
1
1
1
1.0007253605088324
1.0088497300281036
1.0257898897723567
1.0497338980365511
1.0753654878753434
1.1076557381401737
1.146966488405608
1.192524451655139
1.2401434992741867
1.158494944721695
1.1100458417709067
1.062636505706679
1.020081100682618
0.9849239311989448
0.9577409621994971
0.9331875493530621
0.9145336965285467
0.9055635546298907
0.9047619047619048
0.9047619047619048
0.9047619047619048
0.9047619047619048
0.9055635546298907
0.9145336965285467
0.933187549353062
0.9577409621994969
0.9849239311989448
1.020081100682618
1.062636505706679
1.1100458417709067
1.158494944721695
1.0790697543375423
1.0276065328100874
0.9799481842676269
0.934007633413149
0.8954775025384799
0.8657541483586644
0.8410985934955361
0.8204307258774008
0.8104196723620879
0.8095238095238095
0.8095238095238095
0.8095238095238095
0.8095238095238095
0.8104196723620879
0.8204307258774008
0.8410985934955361
0.8657541483586644
0.8954775025384799
0.934007633413149
0.9799481842676268
1.0276065328100874
1.0790697543375423
1.0024036722177372
0.9467823264211738
0.8974695743833946
0.8498915555218571
0.8073570179455208
0.7742581238021122
0.749105657658482
0.7266236022938085
0.7153008659285867
0.7142857142857143
0.7142857142857143
0.7142857142857143
0.7142857142857143
0.7153008659285867
0.7266236022938085
0.749105657658482
0.7742581238021122
0.8073570179455208
0.8498915555218571
0.8974695743833946
0.9467823264211738
1.0024036722177372
0.9291799066888431
0.8688837382194308
0.8152810507176154
0.7673719168801149
0.7210487784251325
0.6837847824542885
0.657112721821428
0.6332438175192111
0.6202186725777119
0.6190476190476191
0.6190476190476191
0.6190476190476191
0.6190476190476191
0.6202186725777119
0.6332438175192111
0.6571127218214279
0.6837847824542884
0.7210487784251325
0.7673719168801147
0.8152810507176151
0.8688837382194308
0.9291799066888431
0.8601927867747965
0.7947714873031212
0.735789343594389
0.6848933069958824
0.6372742593768349
0.5948009790910833
0.5651197859843738
0.5405128999490557
0.5251929782461805
0.5238095238095238
0.5238095238095238
0.5238095238095238
0.5238095238095238
0.5251929782461805
0.5405128999490557
0.5651197859843738
0.5948009790910833
0.6372742593768349
0.6848933069958824
0.7357893435943889
0.7947714873031212
0.8601927867747965
0.792849283804649
0.7255057808345018
0.6604765811170492
0.60340214193378
0.5547956494926026
0.5080899234471443
0.4732295930363706
0.44847741728041296
0.43026121897434355
0.4285714285714286
0.4285714285714286
0.4285714285714286
0.4285714285714286
0.43026121897434355
0.44847741728041296
0.47322959303637047
0.5080899234471443
0.5547956494926026
0.60340214193378
0.6604765811170491
0.7255057808345018
0.7928492838046493
0.7270129014371237
0.6581622778643543
0.590818774894207
0.5263820765531807
0.4723170396083704
0.42469799198932273
0.3826930922754467
0.35648448144335887
0.3355031419773055
0.33333333333333337
0.33333333333333337
0.33333333333333337
0.33333333333333337
0.3355031419773055
0.3564844814433588
0.3826930922754466
0.4246979919893227
0.4723170396083704
0.5263820765531806
0.5908187748942069
0.6581622778643542
0.7270129014371237
0.6679847254670735
0.5926684955345919
0.5234752719240595
0.4561317689539122
0.3926933230488304
0.34221938210509045
0.29513106850089366
0.2644915456063048
0.24112359811756504
0.23809523809523814
0.23809523809523814
0.23809523809523814
0.23809523809523814
0.24112359811756504
0.2644915456063047
0.29513106850089355
0.3422193821050904
0.3926933230488304
0.4561317689539121
0.5234752719240594
0.5926684955345918
0.6679847254670735
0.6176563118272155
0.5357726847924353
0.4585251481443195
0.38878826598376487
0.32144476301361746
0.2600368830688247
0.21212172460181064
0.17249860976925063
0.1478492828215241
0.1428571428571429
0.1428571428571429
0.1428571428571429
0.1428571428571429
0.1478492828215241
0.1724986097692506
0.2121217246018105
0.26003688306882466
0.32144476301361746
0.3887882659837647
0.45852514814431933
0.5357726847924352
0.6176563118272154
0.5700579379159826
0.4875586543239355
0.4050800444397033
0.32483204352499717
0.25410126004347006
0.18675775707332273
0.12964311471757836
0.08217221383313479
0.05585624106528981
0.04761904761904767
0.04761904761904767
0.04761904761904767
0.04761904761904767
0.05585624106528981
0.08217221383313475
0.12964311471757828
0.18675775707332265
0.25410126004347006
0.32483204352499706
0.4050800444397031
0.4875586543239354
0.5700579379159826
0.5296677580455087
0.44172853154248476
0.35746099682065574
0.2749823869364235
0.19252942803323134
0.11941425410317537
0.05207075113302803
0.00045454278570139945
0.036136694771764205
0.04761904761904745
0.04761904761904745
0.04761904761904745
0.04761904761904745
0.036136694771764205
0.00045454278570145496
0.05207075113302788
0.11941425410317531
0.19252942803323134
0.2749823869364234
0.3574609968206555
0.44172853154248465
0.5296677580455087
0.5042523225668373
0.4109094382948317
0.31869000253327606
0.22895558197760965
0.14488472943314357
0.062406119548911336
0.01527275183711945
0.0826162548072668
0.1281296306088184
0.1428571428571428
0.1428571428571428
0.1428571428571428
0.1428571428571428
0.1281296306088184
0.08261625480726688
0.015272751837119604
0.06240611954891124
0.14488472943314357
0.22895558197760954
0.31869000253327584
0.41090943829483156
0.5042523225668373
0.49611839845374095
0.40088605232662966
0.3056572887809396
0.21043697153532961
0.11524603837949718
0.02049803172348364
0.06769153795436858
0.1499597577774143
0.21303081017321374
0.23809523809523814
0.23809523809523814
0.23809523809523814
0.23809523809523814
0.21303081017321374
0.14995975777741438
0.06769153795436877
0.020498031723483533
0.11524603837949718
0.2104369715353295
0.3056572887809394
0.4008860523266296
0.49611839845374095
0.5060999064648413
0.4131746325580087
0.32160539209461475
0.23299650003460848
0.1525952142158617
0.1020971074220672
0.12531132772212786
0.19779440825304673
0.2802678053418806
0.33333333333333326
0.33333333333333326
0.33333333333333326
0.33333333333333326
0.2802678053418806
0.19779440825304684
0.125311327722128
0.10209710742206718
0.1525952142158617
0.2329965000346084
0.32160539209461453
0.41317463255800857
0.5060999064648413
0.5331804149931786
0.4459344308281461
0.36273167470308965
0.28710905356145505
0.22678081711238687
0.19638752239521295
0.20939715486142516
0.25935856944537244
0.3298896121350314
0.41036546284516046
0.4285714285714284
0.4285714285714284
0.41036546284516057
0.3298896121350314
0.2593585694453725
0.20939715486142524
0.19638752239521295
0.22678081711238687
0.28710905356145494
0.3627316747030894
0.445934430828146
0.5331804149931786
0.5749488534731036
0.4951185168984905
0.42173344307826266
0.3587707315468929
0.3125929752695989
0.2912951907091301
0.3002199154649769
0.3369743265035013
0.39384258958667695
0.4634790864659937
0.5238095238095237
0.5238095238095237
0.4634790864659938
0.39384258958667695
0.33697432650350134
0.30021991546497695
0.2912951907091301
0.3125929752695989
0.35877073154689276
0.42173344307826255
0.4951185168984904
0.5749488534731036
0.6284835740549912
0.556388141968051
0.4922240503648166
0.43947907408839376
0.4026658502217432
0.38636550943008324
0.39313791013930105
0.4218733405530474
0.4685481876170678
0.5284300165000577
0.5975615032165514
0.5975615032165517
0.5284300165000578
0.4685481876170678
0.4218733405530475
0.3931379101393011
0.38636550943008324
0.4026658502217432
0.43947907408839376
0.4922240503648165
0.556388141968051
0.6284835740549912
0.6910554327787285
0.6262058550019476
0.5699565984121998
0.5250789130003718
0.4946774658814159
0.48150214453647844
0.48695320586762464
0.5104342502080436
0.5496393476046807
0.6015016963021064
0.6630578846846517
0.6630578846846518
0.6015016963021064
0.5496393476046807
0.5104342502080436
0.48695320586762464
0.48150214453647844
0.4946774658814159
0.5250789130003717
0.5699565984121997
0.6262058550019475
0.6910554327787285
0.7604368540899479
0.7020259045960777
0.6523473936169489
0.6135262527087761
0.5877179537295764
0.5766722752815925
0.5812314707498023
0.6010405324690412
0.634673152355226
0.6800815308031327
0.7350866318521279
0.735086631852128
0.6800815308031328
0.634673152355226
0.6010405324690413
0.5812314707498023
0.5766722752815925
0.5877179537295764
0.613526252708776
0.6523473936169489
0.7020259045960776
0.7604368540899479
0.834931971188431
0.7821045698487661
0.7378375901329567
0.7037482861202969
0.6813659667098605
0.6718616677061069
0.6757789653757806
0.6928902576346784
0.7222584009721883
0.762468409833427
0.8119110442542878
0.811911044254288
0.762468409833427
0.7222584009721883
0.6928902576346784
0.6757789653757806
0.6718616677061069
0.6813659667098605
0.7037482861202969
0.7378375901329565
0.7821045698487661
0.834931971188431
0.9132903008004313
0.8652602702088353
0.825464769954934
0.7951411366800227
0.7754014170827946
0.767063150957191
0.7704965847217649
0.7855473799514542
0.811569451617325
0.847552861488567
0.8922932930408204
0.8922932930408205
0.847552861488567
0.811569451617325
0.7855473799514542
0.7704965847217649
0.767063150957191
0.7754014170827946
0.7951411366800227
0.8254647699549339
0.8652602702088353
0.9132903008004313

SCALARS phi2 double 1
LOOKUP_TABLE default
1.3292402587815135
1.296709615616106
1.2705009163578571
1.2510115584079153
1.2385587792444122
1.2333557352142068
1.2354940222831132
1.2449358128747026
1.2615171290267317
1.284961612285309
1.314902206567102
1.314902206567102
1.284961612285309
1.2615171290267317
1.2449358128747026
1.2354940222831134
1.2333557352142068
1.2385587792444122
1.2510115584079153
1.2705009163578571
1.2967096156161058
1.3292402587815135
1.2413926257255874
1.206495674617855
1.1782820392870623
1.1572406426109154
1.1437673868771272
1.1381310799842435
1.1404479228520825
1.1506698761236085
1.168589514101582
1.1938602643053264
1.2260276499636367
1.2260276499636367
1.1938602643053264
1.168589514101582
1.1506698761236085
1.1404479228520827
1.1381310799842435
1.1437673868771272
1.1572406426109154
1.1782820392870623
1.2064956746178548
1.2413926257255874
1.1547173794549697
1.1171161032234191
1.0865841611748084
1.0637304546359518
1.0490569148016784
1.042908879258195
1.045436769942168
1.0565783165614389
1.0760659959675596
1.1034577046251786
1.1381829262841898
1.1381829262841898
1.1034577046251788
1.0760659959675596
1.0565783165614389
1.0454367699421683
1.042908879258195
1.0490569148016784
1.0637304546359516
1.0865841611748084
1.1171161032234191
1.1547173794549697
1.0694995985010924
1.0287883907100246
0.9955512563874387
0.9705563584350236
0.9544514525484581
0.9476898729089753
0.9504710436019391
0.9627122642858819
0.9840605634087269
1.0139408615275909
1.051626140062849
1.051626140062849
1.013940861527591
0.9840605634087269
0.9627122642858819
0.9504710436019391
0.9476898729089753
0.9544514525484581
0.9705563584350236
0.9955512563874386
1.0287883907100246
1.0694995985010924
0.9861172067973483
0.9418085300142107
0.905383928752004
0.8778253808397547
0.8599856566360091
0.8524751313452118
0.8555658706806657
0.8691447854956365
0.8927334130657972
0.9255667588149002
0.9667033116790762
0.9667033116790763
0.9255667588149004
0.8927334130657972
0.8691447854956365
0.8555658706806657
0.8524751313452118
0.8599856566360091
0.8778253808397547
0.905383928752004
0.9418085300142107
0.9861172067973483
0.9050776151572699
0.8565872116279204
0.8163690356446532
0.78569443371035
0.7657112207200799
0.7572662632647802
0.7607439141988142
0.7759838929199646
0.8023162037009315
0.8386967085544613
0.8838855337249617
0.8838855337249618
0.8386967085544613
0.8023162037009315
0.7759838929199646
0.7607439141988142
0.7572662632647802
0.7657112207200799
0.78569443371035
0.8163690356446531
0.8565872116279204
0.9050776151572699
0.8270697811822769
0.7737057480790898
0.728928896289281
0.6944023881364145
0.6717087218599764
0.6620658025945243
0.6660407168309315
0.683395884943238
0.7131551193164098
0.7538508489258436
0.803823718370134
0.8038237183701341
0.7538508489258436
0.7131551193164098
0.683395884943238
0.6660407168309315
0.6620658025945243
0.6717087218599764
0.6944023881364145
0.7289288962892808
0.7737057480790898
0.8270697811822769
0.7530364838440358
0.6940029594071722
0.64370556848671
0.6043295456163341
0.5781108285424624
0.5668779851259182
0.571515318720286
0.5916497769902737
0.6257873019345247
0.6717965655475654
0.7274284110960182
0.7274284110960184
0.6717965655475655
0.6257873019345247
0.5916497769902737
0.571515318720286
0.5668779851259182
0.5781108285424624
0.6043295456163341
0.6437055684867099
0.6940029594071722
0.7530364838440358
0.6842689958084021
0.6187085099546985
0.5617089740472807
0.5161146309971217
0.4851517728530965
0.47171046484562007
0.4772733725616802
0.5012081117032033
0.5410821193561492
0.593692460880172
0.6559818639978761
0.6559818639978762
0.593692460880172
0.5410821193561492
0.5012081117032033
0.47727337256168023
0.47171046484562007
0.4851517728530965
0.5161146309971217
0.5617089740472806
0.6187085099546985
0.6842689958084021
0.6225148679495535
0.5496370825226173
0.4845798940513937
0.43090023732055
0.3932848139657998
0.37657863035292133
0.3835238901946156
0.4129288963377375
0.46051119647686456
0.5213170247551538
0.5912807354275456
0.5912807354275457
0.521317024755154
0.46051119647686456
0.41292889633773755
0.38352389019461564
0.37657863035292133
0.3932848139657998
0.43090023732055
0.4845798940513935
0.5496370825226173
0.6225148679495535
0.5700579379159826
0.4894304999146934
0.41504092024959677
0.3508793329417943
0.3035032728964977
0.281518661195407
0.29074364328869473
0.3285598350277681
0.38666762709506153
0.4573977831847657
0.5357743926789628
0.5357743926789629
0.4573977831847658
0.38666762709506153
0.32855983502776814
0.2907436432886948
0.281518661195407
0.3035032728964977
0.3508793329417943
0.4150409202495966
0.48943049991469334
0.5700579379159826
0.5296677580455087
0.44172853154248476
0.3575483838777143
0.2805319725407637
0.21839440924808307
0.18664039737738342
0.20028416673495933
0.2520584188742907
0.3241816391704792
0.4059490280740566
0.4925810402182006
0.4925810402182008
0.4059490280740567
0.3241816391704792
0.2520584188742908
0.2002841667349594
0.1866403973773834
0.21839440924808307
0.28053197254076356
0.35754838387771415
0.44172853154248465
0.5296677580455087
0.5042523225668373
0.4109094382948317
0.31869000253327606
0.22895558197760965
0.1463509101164504
0.09250464223098076
0.11762745574826972
0.19301791996211531
0.28074224134667186
0.37217883375517924
0.465143582223316
0.4651435822233162
0.37217883375517935
0.28074224134667186
0.1930179199621154
0.11762745574826985
0.09250464223098073
0.1463509101164504
0.22895558197760954
0.31869000253327584
0.41090943829483156
0.5042523225668373
0.49611839845374095
0.40088605232662966
0.3056572887809396
0.21043697153532961
0.11524603837949718
0.02049803172348364
0.07549356804434629
0.17064283722663762
0.2658557250589277
0.3610819086656385
0.45631306419364537
0.45631306419364553
0.3610819086656386
0.2658557250589277
0.17064283722663773
0.07549356804434651
0.020498031723483533
0.11524603837949718
0.2104369715353295
0.3056572887809394
0.4008860523266296
0.49611839845374095
0.5060999064648413
0.4131746325580087
0.32160539209461475
0.23299650003460848
0.1525952142158617
0.1020971074220672
0.12531132772212786
0.19779440825304673
0.28404738440271604
0.37467825504696256
0.46714586864619717
0.4671458686461974
0.37467825504696267
0.28404738440271604
0.19779440825304684
0.125311327722128
0.10209710742206718
0.1525952142158617
0.2329965000346084
0.32160539209461453
0.41317463255800857
0.5060999064648413
0.5331804149931786
0.4459344308281461
0.36273167470308965
0.28710905356145505
0.22678081711238687
0.19638752239521295
0.20939715486142516
0.25935856944537244
0.3298896121350314
0.4105216613208295
0.4963562251063114
0.49635622510631155
0.4105216613208296
0.3298896121350314
0.2593585694453725
0.20939715486142524
0.19638752239521295
0.22678081711238687
0.28710905356145494
0.3627316747030894
0.445934430828146
0.5331804149931786
0.5749488534731036
0.4951185168984905
0.42173344307826266
0.3587707315468929
0.3125929752695989
0.2912951907091301
0.3002199154649769
0.3369743265035013
0.39384258958667695
0.4634790864659937
0.5409753519149698
0.54097535191497
0.4634790864659938
0.39384258958667695
0.33697432650350134
0.30021991546497695
0.2912951907091301
0.3125929752695989
0.35877073154689276
0.42173344307826255
0.4951185168984904
0.5749488534731036
0.6284835740549912
0.556388141968051
0.4922240503648166
0.43947907408839376
0.4026658502217432
0.38636550943008324
0.39313791013930105
0.4218733405530474
0.4685481876170678
0.5284300165000577
0.5975615032165514
0.5975615032165517
0.5284300165000578
0.4685481876170678
0.4218733405530475
0.3931379101393011
0.38636550943008324
0.4026658502217432
0.43947907408839376
0.4922240503648165
0.556388141968051
0.6284835740549912
0.6910554327787285
0.6262058550019476
0.5699565984121998
0.5250789130003718
0.4946774658814159
0.48150214453647844
0.48695320586762464
0.5104342502080436
0.5496393476046807
0.6015016963021064
0.6630578846846517
0.6630578846846518
0.6015016963021064
0.5496393476046807
0.5104342502080436
0.48695320586762464
0.48150214453647844
0.4946774658814159
0.5250789130003717
0.5699565984121997
0.6262058550019475
0.6910554327787285
0.7604368540899479
0.7020259045960777
0.6523473936169489
0.6135262527087761
0.5877179537295764
0.5766722752815925
0.5812314707498023
0.6010405324690412
0.634673152355226
0.6800815308031327
0.7350866318521279
0.735086631852128
0.6800815308031328
0.634673152355226
0.6010405324690413
0.5812314707498023
0.5766722752815925
0.5877179537295764
0.613526252708776
0.6523473936169489
0.7020259045960776
0.7604368540899479
0.834931971188431
0.7821045698487661
0.7378375901329567
0.7037482861202969
0.6813659667098605
0.6718616677061069
0.6757789653757806
0.6928902576346784
0.7222584009721883
0.762468409833427
0.8119110442542878
0.811911044254288
0.762468409833427
0.7222584009721883
0.6928902576346784
0.6757789653757806
0.6718616677061069
0.6813659667098605
0.7037482861202969
0.7378375901329565
0.7821045698487661
0.834931971188431
0.9132903008004313
0.8652602702088353
0.825464769954934
0.7951411366800227
0.7754014170827946
0.767063150957191
0.7704965847217649
0.7855473799514542
0.811569451617325
0.847552861488567
0.8922932930408204
0.8922932930408205
0.847552861488567
0.811569451617325
0.7855473799514542
0.7704965847217649
0.767063150957191
0.7754014170827946
0.7951411366800227
0.8254647699549339
0.8652602702088353
0.9132903008004313

SCALARS phi3 double 1
LOOKUP_TABLE default
-1.2401434992741867
-1.192524451655139
-1.146966488405608
-1.1076557381401737
-1.0753654878753434
-1.0497338980365511
-1.0257898897723567
-1.0088497300281039
-1.0007253605088324
-1
-1
-1
-1
-1.0007253605088324
-1.0088497300281036
-1.0257898897723567
-1.0497338980365511
-1.0753654878753434
-1.1076557381401737
-1.146966488405608
-1.192524451655139
-1.2401434992741867
-1.158494944721695
-1.1100458417709067
-1.062636505706679
-1.020081100682618
-0.9849239311989448
-0.9577409621994971
-0.9331875493530621
-0.9145336965285467
-0.9055635546298907
-0.9047619047619048
-0.9047619047619048
-0.9047619047619048
-0.9047619047619048
-0.9055635546298907
-0.9145336965285467
-0.933187549353062
-0.9577409621994969
-0.9849239311989448
-1.020081100682618
-1.062636505706679
-1.1100458417709067
-1.158494944721695
-1.0790697543375423
-1.0276065328100874
-0.9799481842676269
-0.934007633413149
-0.8954775025384799
-0.8657541483586644
-0.8410985934955361
-0.8204307258774008
-0.8104196723620879
-0.8095238095238095
-0.8095238095238095
-0.8095238095238095
-0.8095238095238095
-0.8104196723620879
-0.8204307258774008
-0.8410985934955361
-0.8657541483586644
-0.8954775025384799
-0.934007633413149
-0.9799481842676268
-1.0276065328100874
-1.0790697543375423
-1.0024036722177372
-0.9467823264211738
-0.8974695743833946
-0.8498915555218571
-0.8073570179455208
-0.7742581238021122
-0.749105657658482
-0.7266236022938085