# vtk DataFile Version 4.1
Header:
ASCII

DATASET UNSTRUCTURED_GRID
POINTS 484 double
-1 -1 0
-0.9047619047619048 -1 0
-0.8095238095238095 -1 0
-0.7142857142857143 -1 0
-0.6190476190476191 -1 0
-0.5238095238095238 -1 0
-0.4285714285714286 -1 0
-0.33333333333333337 -1 0
-0.23809523809523814 -1 0
-0.1428571428571429 -1 0
-0.04761904761904767 -1 0
0.04761904761904745 -1 0
0.1428571428571428 -1 0
0.23809523809523814 -1 0
0.33333333333333326 -1 0
0.4285714285714284 -1 0
0.5238095238095237 -1 0
0.6190476190476191 -1 0
0.7142857142857142 -1 0
0.8095238095238093 -1 0
0.9047619047619047 -1 0
1 -1 0
-1 -0.9047619047619048 0
-0.9047619047619048 -0.9047619047619048 0
-0.8095238095238095 -0.9047619047619048 0
-0.7142857142857143 -0.9047619047619048 0
-0.6190476190476191 -0.9047619047619048 0
-0.5238095238095238 -0.9047619047619048 0
-0.4285714285714286 -0.9047619047619048 0
-0.33333333333333337 -0.9047619047619048 0
-0.23809523809523814 -0.9047619047619048 0
-0.1428571428571429 -0.9047619047619048 0
-0.04761904761904767 -0.9047619047619048 0
0.04761904761904745 -0.9047619047619048 0
0.1428571428571428 -0.9047619047619048 0
0.23809523809523814 -0.9047619047619048 0
0.33333333333333326 -0.9047619047619048 0
0.4285714285714284 -0.9047619047619048 0
0.5238095238095237 -0.9047619047619048 0
0.6190476190476191 -0.9047619047619048 0
0.7142857142857142 -0.9047619047619048 0
0.8095238095238093 -0.9047619047619048 0
0.9047619047619047 -0.9047619047619048 0
1 -0.9047619047619048 0
-1 -0.8095238095238095 0
-0.9047619047619048 -0.8095238095238095 0
-0.8095238095238095 -0.8095238095238095 0
-0.7142857142857143 -0.8095238095238095 0
-0.6190476190476191 -0.8095238095238095 0
-0.5238095238095238 -0.8095238095238095 0
-0.4285714285714286 -0.8095238095238095 0
-0.33333333333333337 -0.8095238095238095 0
-0.23809523809523814 -0.8095238095238095 0
-0.1428571428571429 -0.8095238095238095 0
-0.04761904761904767 -0.8095238095238095 0
0.04761904761904745 -0.8095238095238095 0
0.1428571428571428 -0.8095238095238095 0
0.23809523809523814 -0.8095238095238095 0
0.33333333333333326 -0.8095238095238095 0
0.4285714285714284 -0.8095238095238095 0
0.5238095238095237 -0.8095238095238095 0
0.6190476190476191 -0.8095238095238095 0
0.7142857142857142 -0.8095238095238095 0
0.8095238095238093 -0.8095238095238095 0
0.9047619047619047 -0.8095238095238095 0
1 -0.8095238095238095 0
-1 -0.7142857142857143 0
-0.9047619047619048 -0.7142857142857143 0
-0.8095238095238095 -0.7142857142857143 0
-0.7142857142857143 -0.7142857142857143 0
-0.6190476190476191 -0.7142857142857143 0
-0.5238095238095238 -0.7142857142857143 0
-0.4285714285714286 -0.7142857142857143 0
-0.33333333333333337 -0.7142857142857143 0
-0.23809523809523814 -0.7142857142857143 0
-0.1428571428571429 -0.7142857142857143 0
-0.04761904761904767 -0.7142857142857143 0
0.04761904761904745 -0.7142857142857143 0
0.1428571428571428 -0.7142857142857143 0
0.23809523809523814 -0.7142857142857143 0
0.33333333333333326 -0.7142857142857143 0
0.4285714285714284 -0.7142857142857143 0
0.5238095238095237 -0.7142857142857143 0
0.6190476190476191 -0.7142857142857143 0
0.7142857142857142 -0.7142857142857143 0
0.8095238095238093 -0.7142857142857143 0
0.9047619047619047 -0.7142857142857143 0
1 -0.7142857142857143 0
-1 -0.6190476190476191 0
-0.9047619047619048 -0.6190476190476191 0
-0.8095238095238095 -0.6190476190476191 0
-0.7142857142857143 -0.6190476190476191 0
-0.6190476190476191 -0.6190476190476191 0
-0.5238095238095238 -0.6190476190476191 0
-0.4285714285714286 -0.6190476190476191 0
-0.33333333333333337 -0.6190476190476191 0
-0.23809523809523814 -0.6190476190476191 0
-0.1428571428571429 -0.6190476190476191 0
-0.04761904761904767 -0.6190476190476191 0
0.04761904761904745 -0.6190476190476191 0
0.1428571428571428 -0.6190476190476191 0
0.23809523809523814 -0.6190476190476191 0
0.33333333333333326 -0.6190476190476191 0
0.4285714285714284 -0.6190476190476191 0
0.5238095238095237 -0.6190476190476191 0
0.6190476190476191 -0.6190476190476191 0
0.7142857142857142 -0.6190476190476191 0
0.8095238095238093 -0.6190476190476191 0
0.9047619047619047 -0.6190476190476191 0
1 -0.6190476190476191 0
-1 -0.5238095238095238 0
-0.9047619047619048 -0.5238095238095238 0
-0.8095238095238095 -0.5238095238095238 0
-0.7142857142857143 -0.5238095238095238 0
-0.6190476190476191 -0.5238095238095238 0
-0.5238095238095238 -0.5238095238095238 0
-0.4285714285714286 -0.5238095238095238 0
-0.33333333333333337 -0.5238095238095238 0
-0.23809523809523814 -0.5238095238095238 0
-0.1428571428571429 -0.5238095238095238 0
-0.04761904761904767 -0.5238095238095238 0
0.04761904761904745 -0.5238095238095238 0
0.1428571428571428 -0.5238095238095238 0
0.23809523809523814 -0.5238095238095238 0
0.33333333333333326 -0.5238095238095238 0
0.4285714285714284 -0.5238095238095238 0
0.5238095238095237 -0.5238095238095238 0
0.6190476190476191 -0.5238095238095238 0
0.7142857142857142 -0.5238095238095238 0
0.8095238095238093 -0.5238095238095238 0
0.9047619047619047 -0.5238095238095238 0
1 -0.5238095238095238 0
-1 -0.4285714285714286 0
-0.9047619047619048 -0.4285714285714286 0
-0.8095238095238095 -0.4285714285714286 0
-0.7142857142857143 -0.4285714285714286 0
-0.6190476190476191 -0.4285714285714286 0
-0.5238095238095238 -0.4285714285714286 0
-0.4285714285714286 -0.4285714285714286 0
-0.33333333333333337 -0.4285714285714286 0
-0.23809523809523814 -0.4285714285714286 0
-0.1428571428571429 -0.4285714285714286 0
-0.04761904761904767 -0.4285714285714286 0
0.04761904761904745 -0.4285714285714286 0
0.1428571428571428 -0.4285714285714286 0
0.23809523809523814 -0.4285714285714286 0
0.33333333333333326 -0.4285714285714286 0
0.4285714285714284 -0.4285714285714286 0
0.5238095238095237 -0.4285714285714286 0
0.6190476190476191 -0.4285714285714286 0
0.7142857142857142 -0.4285714285714286 0
0.8095238095238093 -0.4285714285714286 0
0.9047619047619047 -0.4285714285714286 0
1 -0.4285714285714286 0
-1 -0.33333333333333337 0
-0.9047619047619048 -0.33333333333333337 0
-0.8095238095238095 -0.33333333333333337 0
-0.7142857142857143 -0.33333333333333337 0
-0.6190476190476191 -0.33333333333333337 0
-0.5238095238095238 -0.33333333333333337 0
-0.4285714285714286 -0.33333333333333337 0
-0.33333333333333337 -0.33333333333333337 0
-0.23809523809523814 -0.33333333333333337 0
-0.1428571428571429 -0.33333333333333337 0
-0.04761904761904767 -0.33333333333333337 0
0.04761904761904745 -0.33333333333333337 0
0.1428571428571428 -0.33333333333333337 0
0.23809523809523814 -0.33333333333333337 0
0.33333333333333326 -0.33333333333333337 0
0.4285714285714284 -0.33333333333333337 0
0.5238095238095237 -0.33333333333333337 0
0.6190476190476191 -0.33333333333333337 0
0.7142857142857142 -0.33333333333333337 0
0.8095238095238093 -0.33333333333333337 0
0.9047619047619047 -0.33333333333333337 0
1 -0.33333333333333337 0
-1 -0.23809523809523814 0
-0.9047619047619048 -0.23809523809523814 0
-0.8095238095238095 -0.23809523809523814 0
-0.7142857142857143 -0.23809523809523814 0
-0.6190476190476191 -0.23809523809523814 0
-0.5238095238095238 -0.23809523809523814 0
-0.4285714285714286 -0.23809523809523814 0
-0.33333333333333337 -0.23809523809523814 0
-0.23809523809523814 -0.23809523809523814 0
-0.1428571428571429 -0.23809523809523814 0
-0.04761904761904767 -0.23809523809523814 0
0.04761904761904745 -0.23809523809523814 0
0.1428571428571428 -0.23809523809523814 0
0.23809523809523814 -0.23809523809523814 0
0.33333333333333326 -0.23809523809523814 0
0.4285714285714284 -0.23809523809523814 0
0.5238095238095237 -0.23809523809523814 0
0.6190476190476191 -0.23809523809523814 0
0.7142857142857142 -0.23809523809523814 0
0.8095238095238093 -0.23809523809523814 0
0.9047619047619047 -0.23809523809523814 0
1 -0.23809523809523814 0
-1 -0.1428571428571429 0
-0.9047619047619048 -0.1428571428571429 0
-0.8095238095238095 -0.1428571428571429 0
-0.7142857142857143 -0.1428571428571429 0
-0.6190476190476191 -0.1428571428571429 0
-0.5238095238095238 -0.1428571428571429 0
-0.4285714285714286 -0.1428571428571429 0
-0.33333333333333337 -0.1428571428571429 0
-0.23809523809523814 -0.1428571428571429 0
-0.1428571428571429 -0.1428571428571429 0
-0.04761904761904767 -0.1428571428571429 0
0.04761904761904745 -0.1428571428571429 0
0.1428571428571428 -0.1428571428571429 0
0.23809523809523814 -0.1428571428571429 0
0.33333333333333326 -0.1428571428571429 0
0.4285714285714284 -0.1428571428571429 0
0.5238095238095237 -0.1428571428571429 0
0.6190476190476191 -0.1428571428571429 0
0.7142857142857142 -0.1428571428571429 0
0.8095238095238093 -0.1428571428571429 0
0.9047619047619047 -0.1428571428571429 0
1 -0.1428571428571429 0
-1 -0.04761904761904767 0
-0.9047619047619048 -0.04761904761904767 0
-0.8095238095238095 -0.04761904761904767 0
-0.7142857142857143 -0.04761904761904767 0
-0.6190476190476191 -0.04761904761904767 0
-0.5238095238095238 -0.04761904761904767 0
-0.4285714285714286 -0.04761904761904767 0
-0.33333333333333337 -0.04761904761904767 0
-0.23809523809523814 -0.04761904761904767 0
-0.1428571428571429 -0.04761904761904767 0
-0.04761904761904767 -0.04761904761904767 0
0.04761904761904745 -0.04761904761904767 0
0.1428571428571428 -0.04761904761904767 0
0.23809523809523814 -0.04761904761904767 0
0.33333333333333326 -0.04761904761904767 0
0.4285714285714284 -0.04761904761904767 0
0.5238095238095237 -0.04761904761904767 0
0.6190476190476191 -0.04761904761904767 0
0.7142857142857142 -0.04761904761904767 0
0.8095238095238093 -0.04761904761904767 0
0.9047619047619047 -0.04761904761904767 0
1 -0.04761904761904767 0
-1 0.04761904761904745 0
-0.9047619047619048 0.04761904761904745 0
-0.8095238095238095 0.04761904761904745 0
-0.7142857142857143 0.04761904761904745 0
-0.6190476190476191 0.04761904761904745 0
-0.5238095238095238 0.04761904761904745 0
-0.4285714285714286 0.04761904761904745 0
-0.33333333333333337 0.04761904761904745 0
-0.23809523809523814 0.04761904761904745 0
-0.1428571428571429 0.04761904761904745 0
-0.04761904761904767 0.04761904761904745 0
[...]
POINT_DATA 484
SCALARS phi1 double 1
LOOKUP_TABLE default
1.2806248474865698
1.223392554499016
1.171118813091318
1.1244953516659673
1.0842513117490236
1.0511196923803448
1.0257898897723567
1.0088497300281039
1.0007253605088324
1
1
1
1
1.0007253605088324
1.0088497300281036
1.0257898897723567
1.0511196923803448
1.0842513117490236
1.1244953516659673
1.171118813091318
1.223392554499016
1.2806248474865698
1.2077226934641867
1.146858076098354
1.090923177260804
1.0407131690464753
0.9970932811617319
0.9609613478273414
0.9331875493530621
0.9145336965285467
0.9055635546298907
0.9047619047619048
0.9047619047619048
0.9047619047619048
0.9047619047619048
0.9055635546298907
0.9145336965285467
0.933187549353062
0.9609613478273413
0.9970932811617319
1.0407131690464753
1.0909231772608037
1.146858076098354
1.2077226934641867
1.138125124134399
1.073321079914845
1.0133351235215122
0.9590717356404099
0.9115534571353561
0.871883825917015
0.841173998733392
0.8204307258774008
0.8104196723620879
0.8095238095238095
0.8095238095238095
0.8095238095238095
0.8095238095238095
0.8104196723620879
0.8204307258774008
0.841173998733392
0.8718838259170149
0.9115534571353561
0.9590717356404099
1.013335123521512
1.073321079914845
1.138125124134399
1.0724756788070549
1.0034407924916553
0.9390012545300833
0.8801669600428207
0.8281334365077476
0.7842555000396259
0.7499659856232392
0.7266236022938085
0.7153008659285867
0.7142857142857143
0.7142857142857143
0.7142857142857143
0.7142857142857143
0.7153008659285867
0.7266236022938085
0.7499659856232391
0.7842555000396259
0.8281334365077476
0.8801669600428207
0.9390012545300832
1.0034407924916553
1.0724756788070549
1.0115433528270186
0.9380348058852369
0.8687572900557113
0.8048041690789712
0.7475432172643964
0.6986219022892688
0.6598976076693336
0.6332438175192111
0.6202186725777119
0.6190476190476191
0.6190476190476191
0.6190476190476191
0.6190476190476191
0.6202186725777119
0.6332438175192111
0.6598976076693336
0.6986219022892688
0.7475432172643964
0.8048041690789712
0.8687572900557111
0.9380348058852369
1.0115433528270186
0.9562303159979609
0.878103501665486
0.8036763599919917
0.7340750732397384
0.6708034915405842
0.6158157394410366
0.5715079309972381
0.5405128999490557
0.5251929782461805
0.5238095238095238
0.5238095238095238
0.5238095238095238
0.5238095238095238
0.5251929782461805
0.5405128999490557
0.571507930997238
0.6158157394410365
0.6708034915405842
0.7340750732397384
0.8036763599919915
0.878103501665486
0.9562303159979609
0.9075645813867766
0.8248410827495095
0.7451125712026152
0.6694499722205703
0.5993950086689358
0.53714623436966
0.48571428571428577
0.44883320639802593
0.43026121897434355
0.4285714285714286
0.4285714285714286
0.4285714285714286
0.4285714285714286
0.43026121897434355
0.4488332063980259
0.48571428571428565
0.5371462343696599
0.5993950086689358
0.6694499722205703
0.7451125712026151
0.8248410827495095
0.9075645813867766
0.8666666666666668
0.7796155806002977
0.6947160466604528
0.6128628778360445
0.5354549636903085
0.46471896757165154
0.40417324140805616
0.3590109871423003
0.3355031419773055
0.33333333333333337
0.33333333333333337
0.33333333333333337
0.33333333333333337
0.3355031419773055
0.3590109871423003
0.404173241408056
0.46471896757165143
0.5354549636903085
0.6128628778360445
0.6947160466604526
0.7796155806002977
0.8666666666666668
0.8346791853183043
0.7438942699115622
0.6543765099543576
0.5667266874975938
0.481964987766857
0.40192281611446085
0.33005187526025637
0.27288664346465535
0.24112359811756504
0.23809523809523814
0.23809523809523814
0.23809523809523814
0.23809523809523814
0.24112359811756504
0.2728866434646553
0.3300518752602562
0.40192281611446073
0.481964987766857
0.5667266874975938
0.6543765099543574
0.7438942699115622
0.8346791853183043
0.8126550087615939
0.719094921181435
0.6260410830302781
0.5337583340648401
0.4427291161588366
0.3539219843059438
0.26954231805876017
0.19541223360650664
0.1478492828215241
0.1428571428571429
0.1428571428571429
0.1428571428571429
0.1428571428571429
0.1478492828215241
0.19541223360650653
0.26954231805875994
0.3539219843059437
0.4427291161588366
0.5337583340648401
0.6260410830302778
0.719094921181435
0.8126550087615939
0.8014159804347211
0.7063688244109965
0.6113810988839632
0.5164855947792856
0.42174456810446725
0.32729219576075397
0.2334790604215479
0.14158160711731915
0.06098213559459862
0.04761904761904767
0.04761904761904767
0.04761904761904767
0.04761904761904767
0.06098213559459862
0.14158160711731904
0.23347906042154767
0.32729219576075386
0.42174456810446725
0.5164855947792856
0.611381098883963
0.7063688244109965
0.8014159804347211
0.8014159804347211
0.7063688244109965
0.6113810988839632
0.5164855947792856
0.4217445681044672
0.32729219576075397
0.23347906042154784
0.14158160711731907
0.06098213559459845
0.04761904761904745
0.04761904761904745
0.04761904761904745
0.04761904761904745
0.06098213559459845
0.14158160711731896
0.23347906042154762
0.32729219576075386
0.4217445681044672
0.5164855947792856
0.611381098883963
0.7063688244109965
0.8014159804347211
0.8126550087615939
0.719094921181435
0.626041083030278
0.5337583340648401
0.44272911615883653
0.35392198430594374
0.26954231805876006
0.19541223360650653
0.147849282821524
0.1428571428571428
0.1428571428571428
0.1428571428571428
0.1428571428571428
0.147849282821524
0.19541223360650647
0.2695423180587599
0.3539219843059436
0.44272911615883653
0.5337583340648401
0.6260410830302777
0.719094921181435
0.8126550087615939
0.8346791853183043
0.7438942699115622
0.6543765099543576
0.5667266874975938
0.481964987766857
0.40192281611446085
0.33005187526025637
0.27288664346465535
0.24112359811756504
0.23809523809523814
0.23809523809523814
0.23809523809523814
0.23809523809523814
0.24112359811756504
0.2728866434646553
0.3300518752602562
0.40192281611446073
0.481964987766857
0.5667266874975938
0.6543765099543574
0.7438942699115622
0.8346791853183043
0.8666666666666667
0.7796155806002976
0.6947160466604527
0.6128628778360444
0.5354549636903084
0.46471896757165143
0.40417324140805605
0.35901098714230023
0.3355031419773054
0.33333333333333326
0.33333333333333326
0.33333333333333326
0.33333333333333326
0.3355031419773054
0.3590109871423002
0.4041732414080559
0.4647189675716514
0.5354549636903084
0.6128628778360444
0.6947160466604525
0.7796155806002976
0.8666666666666667
0.9075645813867766
0.8248410827495094
0.7451125712026152
0.6694499722205702
0.5993950086689356
0.5371462343696598
0.48571428571428554
0.4488332063980257
0.43026121897434333
0.4285714285714284
0.4285714285714284
0.4285714285714284
0.4285714285714284
0.43026121897434333
0.44883320639802565
0.48571428571428543
0.5371462343696598
0.5993950086689356
0.6694499722205702
0.745112571202615
0.8248410827495094
0.9075645813867766
0.9562303159979608
0.8781035016654859
0.8036763599919916
0.7340750732397384
0.670803491540584
0.6158157394410365
0.571507930997238
0.5405128999490556
0.5251929782461804
0.5238095238095237
0.5238095238095237
0.5238095238095237
0.5238095238095237
0.5251929782461804
0.5405128999490556
0.5715079309972378
0.6158157394410365
0.670803491540584
0.7340750732397384
0.8036763599919914
0.8781035016654859
0.9562303159979608
1.0115433528270186
0.9380348058852369
0.8687572900557113
0.8048041690789712
0.7475432172643964
0.6986219022892688
0.6598976076693336
0.6332438175192111
0.6202186725777119
0.6190476190476191
0.6190476190476191
0.6190476190476191
0.6190476190476191
0.6202186725777119
0.6332438175192111
0.6598976076693336
0.6986219022892688
0.7475432172643964
0.8048041690789712
0.8687572900557111
0.9380348058852369
1.0115433528270186
1.0724756788070549
1.0034407924916553
0.9390012545300833
0.8801669600428207
0.8281334365077475
0.7842555000396259
0.7499659856232391
0.7266236022938085
0.7153008659285867
0.7142857142857142
0.7142857142857142
0.7142857142857142
0.7142857142857142
0.7153008659285867
0.7266236022938085
0.7499659856232391
0.7842555000396257
0.8281334365077475
0.8801669600428207
0.9390012545300832
1.0034407924916553
1.0724756788070549
1.1381251241343988
1.073321079914845
1.013335123521512
0.9590717356404097
0.911553457135356
0.8718838259170147
0.8411739987333918
0.8204307258774006
0.8104196723620877
0.8095238095238093
0.8095238095238093
0.8095238095238093
0.8095238095238093
0.8104196723620877
0.8204307258774006
0.8411739987333918
0.8718838259170146
0.911553457135356
0.9590717356404097
1.0133351235215118
1.073321079914845
1.1381251241343988
1.2077226934641867
1.146858076098354
1.090923177260804
1.040713169046475
0.9970932811617318
0.9609613478273413
0.933187549353062
0.9145336965285465
0.9055635546298906
0.9047619047619047
0.9047619047619047
0.9047619047619047
0.9047619047619047
0.9055635546298906
0.9145336965285465
0.9331875493530619
0.9609613478273412
0.9970932811617318
1.040713169046475
1.0909231772608037
1.146858076098354
1.2077226934641867
1.2806248474865698
1.223392554499016
1.171118813091318
1.1244953516659673
1.0842513117490236
1.0511196923803448
1.0257898897723567
1.0088497300281039
1.0007253605088324
1
1
1
1
1.0007253605088324
1.0088497300281036
1.0257898897723567
1.0511196923803448
1.0842513117490236
1.1244953516659673
1.171118813091318
1.223392554499016
1.2806248474865698

SCALARS phi2 double 1
LOOKUP_TABLE default
1.2806248474865698
1.223392554499016
1.171118813091318
1.1244953516659673
1.0842513117490236
1.0511196923803448
1.0257898897723567
1.0088497300281039
1.0007253605088324
1.0016313224547488
1.0115433528270186
1.0115433528270186
1.0016313224547488
1.0007253605088324
1.0088497300281036
1.0257898897723567
1.0511196923803448
1.0842513117490236
1.1244953516659673
1.171118813091318
1.223392554499016
1.2806248474865698
1.2077226934641867
1.146858076098354
1.090923177260804
1.0407131690464753
0.9970932811617319
0.9609613478273414
0.9331875493530621
0.9145336965285467
0.9055635546298907
0.9065646201076011
0.917504255552483
0.917504255552483
0.9065646201076011
0.9055635546298907
0.9145336965285467
0.933187549353062
0.9609613478273413
0.9970932811617319
1.0407131690464753
1.0909231772608037
1.146858076098354
1.2077226934641867
1.138125124134399
1.073321079914845
1.0133351235215122
0.9590717356404099
0.9115534571353561
0.871883825917015
0.841173998733392
0.8204307258774008
0.8104196723620879
0.8115381102008642
0.8237407072826176
0.8237407072826176
0.8115381102008642
0.8104196723620879
0.8204307258774008
0.841173998733392
0.8718838259170149
0.9115534571353561
0.9590717356404099
1.013335123521512
1.073321079914845
1.138125124134399
1.0724756788070549
1.0034407924916553
0.9390012545300833
0.8801669600428207
0.8281334365077476
0.7842555000396259
0.7499659856232392
0.7266236022938085
0.7153008659285867
0.7165677830848259
0.7303588407633465
0.7303588407633465
0.7165677830848259
0.7153008659285867
0.7266236022938085
0.7499659856232391
0.7842555000396259
0.8281334365077476
0.8801669600428207
0.9390012545300832
1.0034407924916553
1.0724756788070549
1.0115433528270186
0.9380348058852369
0.8687572900557113
0.8048041690789712
0.7475432172643964
0.6986219022892688
0.6598976076693336
0.6332438175192111
0.6202186725777119
0.6216793874425748
0.6375263989020785
0.6375263989020785
0.6216793874425748
0.6202186725777119
0.6332438175192111
0.6598976076693336
0.6986219022892688
0.7475432172643964
0.8048041690789712
0.8687572900557111
0.9380348058852369
1.0115433528270186
0.9562303159979609
0.878103501665486
0.8036763599919917
0.7340750732397384
0.6708034915405842
0.6158157394410366
0.5715079309972381
0.5405128999490557
0.5251929782461805
0.5269171883284973
0.5455239425378928
0.5455239425378928
0.5269171883284973
0.5251929782461805
0.5405128999490557
0.571507930997238
0.6158157394410365
0.6708034915405842
0.7340750732397384
0.8036763599919915
0.878103501665486
0.9562303159979609
0.9075645813867766
0.8248410827495095
0.7451125712026152
0.6694499722205703
0.5993950086689358
0.53714623436966
0.48571428571428577
0.44883320639802593
0.43026121897434355
0.43236417001204447
0.454855388047983
0.4548553880479831
0.4323641700120445
0.43026121897434355
0.4488332063980259
0.48571428571428565
0.5371462343696599
0.5993950086689358
0.6694499722205703
0.7451125712026151
0.8248410827495095
0.9075645813867766
0.8666666666666668
0.7796155806002977
0.6947160466604528
0.6128628778360445
0.5354549636903085
0.46471896757165154
0.40417324140805616
0.3590109871423003
0.3355031419773055
0.3381958267536134
0.366512026759883
0.3665120267598831
0.3381958267536134
0.3355031419773055
0.3590109871423003
0.404173241408056
0.46471896757165143
0.5354549636903085
0.6128628778360445
0.6947160466604526
0.7796155806002977
0.8666666666666668
0.8346791853183043
0.7438942699115622
0.6543765099543576
0.5667266874975938
0.481964987766857
0.40192281611446085
0.33005187526025637
0.27288664346465535
0.24112359811756504
0.24485638347014177
0.28268232532677773
0.28268232532677784
0.2448563834701418
0.24112359811756504
0.2728866434646553
0.3300518752602562
0.40192281611446073
0.481964987766857
0.5667266874975938
0.6543765099543574
0.7438942699115622
0.8346791853183043
0.8126550087615939
0.719094921181435
0.6260410830302781
0.5337583340648401
0.4427291161588366
0.3539219843059438
0.26954231805876017
0.19541223360650664
0.1478492828215241
0.15386185163241442
0.20887344951867912
0.20887344951867928
0.15386185163241448
0.1478492828215241
0.19541223360650653
0.26954231805875994
0.3539219843059437
0.4427291161588366
0.5337583340648401
0.6260410830302778
0.719094921181435
0.8126550087615939
0.8014159804347211
0.7063688244109965
0.6113810988839632
0.5164855947792856
0.42174456810446725
0.32729219576075397
0.2334790604215479
0.14158160711731915
0.06098213559459862
0.07438333024673005
0.15964813918324006
0.15964813918324028
0.07438333024673013
0.06098213559459862
0.14158160711731904
0.23347906042154767
0.32729219576075386
0.42174456810446725
0.5164855947792856
0.611381098883963
0.7063688244109965
0.8014159804347211
0.8014159804347211
0.7063688244109965
0.6113810988839632
0.5164855947792856
0.4217445681044672
0.32729219576075397
0.23347906042154784
0.14158160711731907
0.06098213559459845
0.07438333024672991
0.15964813918324
0.15964813918324022
0.07438333024672998
0.06098213559459845
0.14158160711731896
0.23347906042154762
0.32729219576075386
0.4217445681044672
0.5164855947792856
0.611381098883963
0.7063688244109965
0.8014159804347211
0.8126550087615939
0.719094921181435
0.626041083030278
0.5337583340648401
0.44272911615883653
0.35392198430594374
0.26954231805876006
0.19541223360650653
0.147849282821524
0.15386185163241434
0.20887344951867906
0.20887344951867923
0.15386185163241436
0.147849282821524
0.19541223360650647
0.2695423180587599
0.3539219843059436
0.44272911615883653
0.5337583340648401
0.6260410830302777
0.719094921181435
0.8126550087615939
0.8346791853183043
0.7438942699115622
0.6543765099543576
0.5667266874975938
0.481964987766857
0.40192281611446085
0.33005187526025637
0.27288664346465535
0.24112359811756504
0.24485638347014177
0.28268232532677773
0.28268232532677784
0.2448563834701418
0.24112359811756504
0.2728866434646553
0.3300518752602562
0.40192281611446073
0.481964987766857
0.5667266874975938
0.6543765099543574
0.7438942699115622
0.8346791853183043
0.8666666666666667
0.7796155806002976
0.6947160466604527
0.6128628778360444
0.5354549636903084
0.46471896757165143
0.40417324140805605
0.35901098714230023
0.3355031419773054
0.3381958267536133
0.3665120267598829
0.366512026759883
0.33819582675361337
0.3355031419773054
0.3590109871423002
0.4041732414080559
0.4647189675716514
0.5354549636903084
0.6128628778360444
0.6947160466604525
0.7796155806002976
0.8666666666666667
0.9075645813867766
0.8248410827495094
0.7451125712026152
0.6694499722205702
0.5993950086689356
0.5371462343696598
0.48571428571428554
0.4488332063980257
0.43026121897434333
0.43236417001204425
0.45485538804798276
0.45485538804798287
0.4323641700120443
0.43026121897434333
0.44883320639802565
0.48571428571428543
0.5371462343696598
0.5993950086689356
0.6694499722205702
0.745112571202615
0.8248410827495094
0.9075645813867766
0.9562303159979608
0.8781035016654859
0.8036763599919916
0.7340750732397384
0.670803491540584
0.6158157394410365
0.571507930997238
0.5405128999490556
0.5251929782461804
0.5269171883284972
0.5455239425378927
0.5455239425378927
0.5269171883284972
0.5251929782461804
0.5405128999490556
0.5715079309972378
0.6158157394410365
0.670803491540584
0.7340750732397384
0.8036763599919914
0.8781035016654859
0.9562303159979608
1.0115433528270186
0.9380348058852369
0.8687572900557113
0.8048041690789712
0.7475432172643964
0.6986219022892688
0.6598976076693336
0.6332438175192111
0.6202186725777119
0.6216793874425748
0.6375263989020785
0.6375263989020785
0.6216793874425748
0.6202186725777119
0.6332438175192111
0.6598976076693336
0.6986219022892688
0.7475432172643964
0.8048041690789712
0.8687572900557111
0.9380348058852369
1.0115433528270186
1.0724756788070549
1.0034407924916553
0.9390012545300833
0.8801669600428207
0.8281334365077475
0.7842555000396259
0.7499659856232391
0.7266236022938085
0.7153008659285867
0.7165677830848258
0.7303588407633463
0.7303588407633463
0.7165677830848258
0.7153008659285867
0.7266236022938085
0.7499659856232391
0.7842555000396257
0.8281334365077475
0.8801669600428207
0.9390012545300832
1.0034407924916553
1.0724756788070549
1.1381251241343988
1.073321079914845
1.013335123521512
0.9590717356404097
0.911553457135356
0.8718838259170147
0.8411739987333918
0.8204307258774006
0.8104196723620877
0.811538110200864
0.8237407072826174
0.8237407072826174
0.811538110200864
0.8104196723620877
0.8204307258774006
0.8411739987333918
0.8718838259170146
0.911553457135356
0.9590717356404097
1.0133351235215118
1.073321079914845
1.1381251241343988
1.2077226934641867
1.146858076098354
1.090923177260804
1.040713169046475
0.9970932811617318
0.9609613478273413
0.933187549353062
0.9145336965285465
0.9055635546298906
0.906564620107601
0.9175042555524829
0.9175042555524829
0.906564620107601
0.9055635546298906
0.9145336965285465
0.9331875493530619
0.9609613478273412
0.9970932811617318
1.040713169046475
1.0909231772608037
1.146858076098354
1.2077226934641867
1.2806248474865698
1.223392554499016
1.171118813091318
1.1244953516659673
1.0842513117490236
1.0511196923803448
1.0257898897723567
1.0088497300281039
1.0007253605088324
1.0016313224547488
1.0115433528270186
1.0115433528270186
1.0016313224547488
1.0007253605088324
1.0088497300281036
1.0257898897723567
1.0511196923803448
1.0842513117490236
1.1244953516659673
1.171118813091318
1.223392554499016
1.2806248474865698

SCALARS phi3 double 1
LOOKUP_TABLE default
-1
-1
-1
-1
-1
-1
-1
-1
-1
-1
-1
-1
-1
-1
-1
-1
-1
-1
-1
-1
-1
-1
-0.9047619047619048
-0.9047619047619048
-0.9047619047619048
-0.9047619047619048
-0.9047619047619048
-0.9047619047619048
-0.9047619047619048
-0.9047619047619048
-0.9047619047619048
-0.9047619047619048
-0.9047619047619048
-0.9047619047619048
-0.9047619047619048
-0.9047619047619048
-0.9047619047619048
-0.9047619047619048
-0.9047619047619048
-0.9047619047619048
-0.9047619047619048
-0.9047619047619048
-0.9047619047619048
-0.9047619047619048
-0.8095238095238095
-0.8095238095238095
-0.8095238095238095
-0.8095238095238095
-0.8095238095238095
-0.8095238095238095
-0.8095238095238095
-0.8095238095238095
-0.8095238095238095
-0.8095238095238095
-0.8095238095238095
-0.8095238095238095
-0.8095238095238095
-0.8095238095238095
-0.8095238095238095
-0.8095238095238095
-0.8095238095238095
-0.8095238095238095
-0.8095238095238095
-0.8095238095238095
-0.8095238095238095
-0.8095238095238095
-0.7142857142857143
-0.7142857142857143
-0.7142857142857143
-0.7142857142857143
-0.7142857142857143
-0.7142857142857143
-0.7142857142857143
-0.7142857142857143
-0.7142857142857143
-0.7142857142857143
-0.7142857142857143
-0.7142857142857143
-0.7142857142857143
-0.7142857142857143
-0.7142857142857143
-0.7142857142857143
-0.7142857142857143
-0.7142857142857143
-0.7142857142857143
-0.7142857142857143
-0.7142857142857143
-0.7142857142857143
-0.6190476190476191
-0.6190476190476191
-0.6190476190476191
-0.6190476190476191
-0.6190476190476191
-0.6190476190476191
-0.6190476190476191
-0.6190476190476191