# vtk DataFile Version 4.1
Header:
ASCII

DATASET UNSTRUCTURED_GRID
POINTS 676 double
-1 -1 0
-0.92 -1 0
-0.84 -1 0
-0.76 -1 0
-0.6799999999999999 -1 0
-0.6 -1 0
-0.52 -1 0
-0.43999999999999995 -1 0
-0.36 -1 0
-0.28 -1 0
-0.19999999999999996 -1 0
-0.12 -1 0
-0.040000000000000036 -1 0
0.040000000000000036 -1 0
0.1200000000000001 -1 0
0.19999999999999996 -1 0
0.28 -1 0
0.3600000000000001 -1 0
0.43999999999999995 -1 0
0.52 -1 0
0.6000000000000001 -1 0
0.6799999999999999 -1 0
0.76 -1 0
0.8400000000000001 -1 0
0.9199999999999999 -1 0
1 -1 0
-1 -0.92 0
-0.92 -0.92 0
-0.84 -0.92 0
-0.76 -0.92 0
-0.6799999999999999 -0.92 0
-0.6 -0.92 0
-0.52 -0.92 0
-0.43999999999999995 -0.92 0
-0.36 -0.92 0
-0.28 -0.92 0
-0.19999999999999996 -0.92 0
-0.12 -0.92 0
-0.040000000000000036 -0.92 0
0.040000000000000036 -0.92 0
0.1200000000000001 -0.92 0
0.19999999999999996 -0.92 0
0.28 -0.92 0
0.3600000000000001 -0.92 0
0.43999999999999995 -0.92 0
0.52 -0.92 0
0.6000000000000001 -0.92 0
0.6799999999999999 -0.92 0
0.76 -0.92 0
0.8400000000000001 -0.92 0
0.9199999999999999 -0.92 0
1 -0.92 0
-1 -0.84 0
-0.92 -0.84 0
-0.84 -0.84 0
-0.76 -0.84 0
-0.6799999999999999 -0.84 0
-0.6 -0.84 0
-0.52 -0.84 0
-0.43999999999999995 -0.84 0
-0.36 -0.84 0
-0.28 -0.84 0
-0.19999999999999996 -0.84 0
-0.12 -0.84 0
-0.040000000000000036 -0.84 0
0.040000000000000036 -0.84 0
0.1200000000000001 -0.84 0
0.19999999999999996 -0.84 0
0.28 -0.84 0
0.3600000000000001 -0.84 0
0.43999999999999995 -0.84 0
0.52 -0.84 0
0.6000000000000001 -0.84 0
0.6799999999999999 -0.84 0
0.76 -0.84 0
0.8400000000000001 -0.84 0
0.9199999999999999 -0.84 0
1 -0.84 0
-1 -0.76 0
-0.92 -0.76 0
-0.84 -0.76 0
-0.76 -0.76 0
-0.6799999999999999 -0.76 0
-0.6 -0.76 0
-0.52 -0.76 0
-0.43999999999999995 -0.76 0
-0.36 -0.76 0
-0.28 -0.76 0
-0.19999999999999996 -0.76 0
-0.12 -0.76 0
-0.040000000000000036 -0.76 0
0.040000000000000036 -0.76 0
0.1200000000000001 -0.76 0
0.19999999999999996 -0.76 0
0.28 -0.76 0
0.3600000000000001 -0.76 0
0.43999999999999995 -0.76 0
0.52 -0.76 0
0.6000000000000001 -0.76 0
0.6799999999999999 -0.76 0
0.76 -0.76 0
0.8400000000000001 -0.76 0
0.9199999999999999 -0.76 0
1 -0.76 0
-1 -0.6799999999999999 0
-0.92 -0.6799999999999999 0
-0.84 -0.6799999999999999 0
-0.76 -0.6799999999999999 0
-0.6799999999999999 -0.6799999999999999 0
-0.6 -0.6799999999999999 0
-0.52 -0.6799999999999999 0
-0.43999999999999995 -0.6799999999999999 0
-0.36 -0.6799999999999999 0
-0.28 -0.6799999999999999 0
-0.19999999999999996 -0.6799999999999999 0
-0.12 -0.6799999999999999 0
-0.040000000000000036 -0.6799999999999999 0
0.040000000000000036 -0.6799999999999999 0
0.1200000000000001 -0.6799999999999999 0
0.19999999999999996 -0.6799999999999999 0
0.28 -0.6799999999999999 0
0.3600000000000001 -0.6799999999999999 0
0.43999999999999995 -0.6799999999999999 0
0.52 -0.6799999999999999 0
0.6000000000000001 -0.6799999999999999 0
0.6799999999999999 -0.6799999999999999 0
0.76 -0.6799999999999999 0
0.8400000000000001 -0.6799999999999999 0
0.9199999999999999 -0.6799999999999999 0
1 -0.6799999999999999 0
-1 -0.6 0
-0.92 -0.6 0
-0.84 -0.6 0
-0.76 -0.6 0
-0.6799999999999999 -0.6 0
-0.6 -0.6 0
-0.52 -0.6 0
-0.43999999999999995 -0.6 0
-0.36 -0.6 0
-0.28 -0.6 0
-0.19999999999999996 -0.6 0
-0.12 -0.6 0
-0.040000000000000036 -0.6 0
0.040000000000000036 -0.6 0
0.1200000000000001 -0.6 0
0.19999999999999996 -0.6 0
0.28 -0.6 0
0.3600000000000001 -0.6 0
0.43999999999999995 -0.6 0
0.52 -0.6 0
0.6000000000000001 -0.6 0
0.6799999999999999 -0.6 0
0.76 -0.6 0
0.8400000000000001 -0.6 0
0.9199999999999999 -0.6 0
1 -0.6 0
-1 -0.52 0
-0.92 -0.52 0
-0.84 -0.52 0
-0.76 -0.52 0
-0.6799999999999999 -0.52 0
-0.6 -0.52 0
-0.52 -0.52 0
-0.43999999999999995 -0.52 0
-0.36 -0.52 0
-0.28 -0.52 0
-0.19999999999999996 -0.52 0
-0.12 -0.52 0
-0.040000000000000036 -0.52 0
0.040000000000000036 -0.52 0
0.1200000000000001 -0.52 0
0.19999999999999996 -0.52 0
0.28 -0.52 0
0.3600000000000001 -0.52 0
0.43999999999999995 -0.52 0
0.52 -0.52 0
0.6000000000000001 -0.52 0
0.6799999999999999 -0.52 0
0.76 -0.52 0
0.8400000000000001 -0.52 0
0.9199999999999999 -0.52 0
1 -0.52 0
-1 -0.43999999999999995 0
-0.92 -0.43999999999999995 0
-0.84 -0.43999999999999995 0
-0.76 -0.43999999999999995 0
-0.6799999999999999 -0.43999999999999995 0
-0.6 -0.43999999999999995 0
-0.52 -0.43999999999999995 0
-0.43999999999999995 -0.43999999999999995 0
-0.36 -0.43999999999999995 0
-0.28 -0.43999999999999995 0
-0.19999999999999996 -0.43999999999999995 0
-0.12 -0.43999999999999995 0
-0.040000000000000036 -0.43999999999999995 0
0.040000000000000036 -0.43999999999999995 0
0.1200000000000001 -0.43999999999999995 0
0.19999999999999996 -0.43999999999999995 0
0.28 -0.43999999999999995 0
0.3600000000000001 -0.43999999999999995 0
0.43999999999999995 -0.43999999999999995 0
0.52 -0.43999999999999995 0
0.6000000000000001 -0.43999999999999995 0
0.6799999999999999 -0.43999999999999995 0
0.76 -0.43999999999999995 0
0.8400000000000001 -0.43999999999999995 0
0.9199999999999999 -0.43999999999999995 0
1 -0.43999999999999995 0
-1 -0.36 0
-0.92 -0.36 0
-0.84 -0.36 0
-0.76 -0.36 0
-0.6799999999999999 -0.36 0
-0.6 -0.36 0
-0.52 -0.36 0
-0.43999999999999995 -0.36 0
-0.36 -0.36 0
-0.28 -0.36 0
-0.19999999999999996 -0.36 0
-0.12 -0.36 0
-0.040000000000000036 -0.36 0
0.040000000000000036 -0.36 0
0.1200000000000001 -0.36 0
0.19999999999999996 -0.36 0
0.28 -0.36 0
0.3600000000000001 -0.36 0
0.43999999999999995 -0.36 0
0.52 -0.36 0
0.6000000000000001 -0.36 0
0.6799999999999999 -0.36 0
0.76 -0.36 0
0.8400000000000001 -0.36 0
0.9199999999999999 -0.36 0
1 -0.36 0
-1 -0.28 0
-0.92 -0.28 0
-0.84 -0.28 0
-0.76 -0.28 0
-0.6799999999999999 -0.28 0
-0.6 -0.28 0
-0.52 -0.28 0
-0.43999999999999995 -0.28 0
-0.36 -0.28 0
-0.28 -0.28 0
-0.19999999999999996 -0.28 0
-0.12 -0.28 0
-0.040000000000000036 -0.28 0
0.040000000000000036 -0.28 0
0.1200000000000001 -0.28 0
0.19999999999999996 -0.28 0
0.28 -0.28 0
0.3600000000000001 -0.28 0
0.43999999999999995 -0.28 0
0.52 -0.28 0
0.6000000000000001 -0.28 0
0.6799999999999999 -0.28 0
0.76 -0.28 0
0.8400000000000001 -0.28 0
0.9199999999999999 -0.28 0
1 -0.28 0
-1 -0.19999999999999996 0
-0.92 -0.19999999999999996 0
-0.84 -0.19999999999999996 0
-0.76 -0.19999999999999996 0
-0.6799999999999999 -0.19999999999999996 0
-0.6 -0.19999999999999996 0
-0.52 -0.19999999999999996 0
-0.43999999999999995 -0.19999999999999996 0
-0.36 -0.19999999999999996 0
-0.28 -0.19999999999999996 0
-0.19999999999999996 -0.19999999999999996 0
-0.12 -0.19999999999999996 0
-0.040000000000000036 -0.19999999999999996 0
0.040000000000000036 -0.19999999999999996 0
0.1200000000000001 -0.19999999999999996 0
0.19999999999999996 -0.19999999999999996 0
0.28 -0.19999999999999996 0
0.3600000000000001 -0.19999999999999996 0
0.43999999999999995 -0.19999999999999996 0
0.52 -0.19999999999999996 0
0.6000000000000001 -0.19999999999999996 0
0.6799999999999999 -0.19999999999999996 0
0.76 -0.19999999999999996 0
0.8400000000000001 -0.19999999999999996 0
0.9199999999999999 -0.19999999999999996 0
1 -0.19999999999999996 0
-1 -0.12 0
-0.92 -0.12 0
-0.84 -0.12 0
-0.76 -0.12 0
-0.6799999999999999 -0.12 0
-0.6 -0.12 0
-0.52 -0.12 0
-0.43999999999999995 -0.12 0
-0.36 -0.12 0
-0.28 -0.12 0
-0.19999999999999996 -0.12 0
-0.12 -0.12 0
-0.040000000000000036 -0.12 0
0.040000000000000036 -0.12 0
0.1200000000000001 -0.12 0
0.19999999999999996 -0.12 0
0.28 -0.12 0
0.3600000000000001 -0.12 0
0.43999999999999995 -0.12 0
0.52 -0.12 0
0.6000000000000001 -0.12 0
0.6799999999999999 -0.12 0
0.76 -0.12 0
0.8400000000000001 -0.12 0
0.9199999999999999 -0.12 0
1 -0.12 0
-1 -0.040000000000000036 0
-0.92 -0.040000000000000036 0
-0.84 -0.040000000000000036 0
-0.76 -0.040000000000000036 0
-0.6799999999999999 -0.040000000000000036 0
-0.6 -0.040000000000000036 0
-0.52 -0.040000000000000036 0
-0.43999999999999995 -0.040000000000000036 0
-0.36 -0.040000000000000036 0
-0.28 -0.040000000000000036 0
-0.19999999999999996 -0.040000000000000036 0
-0.12 -0.040000000000000036 0
-0.040000000000000036 -0.040000000000000036 0
0.040000000000000036 -0.040000000000000036 0
0.1200000000000001 -0.040000000000000036 0
0.19999999999999996 -0.040000000000000036 0
0.28 -0.040000000000000036 0
0.3600000000000001 -0.040000000000000036 0
0.43999999999999995 -0.040000000000000036 0
0.52 -0.040000000000000036 0
0.6000000000000001 -0.040000000000000036 0
0.6799999999999999 -0.040000000000000036 0
0.76 -0.040000000000000036 0
0.8400000000000001 -0.040000000000000036 0
0.9199999999999999 -0.040000000000000036 0
1 -0.040000000000000036 0
-1 0.040000000000000036 0
-0.92 0.040000000000000036 0
-0.84 0.040000000000000036 0
-0.76 0.040000000000000036 0
-0.6799999999999999 0.040000000000000036 0
-0.6 0.040000000000000036 0
-0.52 0.040000000000000036 0
-0.43999999999999995 0.040000000000000036 0
-0.36 0.040000000000000036 0
-0.28 0.040000000000000036 0
-0.19999999999999996 0.040000000000000036 0
-0.12 0.040000000000000036 0
-0.040000000000000036 0.040000000000000036 0
0.040000000000000036 0.040000000000000036 0
0.1200000000000001 0.040000000000000036 0
0.19999999999999996 0.040000000000000036 0
0.28 0.040000000000000036 0
0.3600000000000001 0.040000000000000036 0
0.43999999999999995 0.040000000000000036 0
0.52 0.040000000000000036 0
0.6000000000000001 0.040000000000000036 0
0.6799999999999999 0.040000000000000036 0
0.76 0.040000000000000036 0
0.8400000000000001 0.040000000000000036 0
0.9199999999999999 0.040000000000000036 0
1 0.040000000000000036 0
-1 0.1200000000000001 0
-0.92 0.1200000000000001 0
-0.84 0.1200000000000001 0
-0.76 0.1200000000000001 0
-0.6799999999999999 0.1200000000000001 0
-0.6 0.1200000000000001 0
-0.52 0.1200000000000001 0
-0.43999999999999995 0.1200000000000001 0
-0.36 0.1200000000000001 0
-0.28 0.1200000000000001 0
-0.19999999999999996 0.1200000000000001 0
-0.12 0.1200000000000001 0
-0.040000000000000036 0.1200000000000001 0
0.040000000000000036 0.1200000000000001 0
0.1200000000000001 0.1200000000000001 0
0.19999999999999996 0.1200000000000001 0
0.28 0.1200000000000001 0
[...]
POINT_DATA 676
SCALARS phi1 double 1
LOOKUP_TABLE default
1.243871246075836
1.2004459546497204
1.1609157175503755
1.1256909506947848
1.095187166513904
1.0698082739058334
1.0487479207218748
1.0283968105745953
1.012719112093773
1.0031948963187562
1
1
1
1
1
1
1.0031948963187562
1.012719112093773
1.0283968105745953
1.0487479207218748
1.0698082739058334
1.095187166513904
1.1256909506947848
1.1609157175503755
1.2004459546497204
1.243871246075836
1.1787597601261306
1.132841288668999
1.0908639688493993
1.0532991083991707
1.0206340308725323
0.9933522226258611
0.9714738546187495
0.950789145920377
0.9338094023943002
0.9234717104492156
0.92
0.92
0.92
0.92
0.92
0.92
0.9234717104492156
0.9338094023943002
0.950789145920377
0.9714738546187495
0.9933522226258612
1.0206340308725323
1.0532991083991707
1.0908639688493993
1.132841288668999
1.1787597601261306
1.115586602362619
1.0669528014826135
1.022273492668289
0.9820885433772496
0.9469702847784996
0.9175006994406587
0.8941997885156239
0.8734942649074222
0.8551023330572779
0.8438009243891593
0.84
0.84
0.84
0.84
0.84
0.84
0.8438009243891593
0.855102333057278
0.8734942649074222
0.8941997885156239
0.9175006994406587
0.9469702847784996
0.9820885433772496
1.022273492668289
1.0669528014826135
1.115586602362619
1.0547001292544398
1.0031187247130608
0.9554590462655018
0.9123359043198989
0.8744207314169951
0.8424170159442754
0.8170197316913973
0.7962201988042968
0.776659513557904
0.764198926981712
0.76
0.76
0.76
0.76
0.76
0.76
0.764198926981712
0.776659513557904
0.7962201988042968
0.8170197316913973
0.8424170159442755
0.8744207314169951
0.9123359043198989
0.9554590462655019
1.0031187247130606
1.0547001292544398
0.9965195722752723
0.9417569066103614
0.8908203434862396
0.8444025684408871
0.8032873152304798
0.768326313509317
0.7403918808654254
0.7189461327011714
0.6985699678629191
0.6846897107449476
0.6799999999999999
0.6799999999999999
0.6799999999999999
0.6799999999999999
0.6799999999999999
0.6799999999999999
0.6846897107449476
0.6985699678629191
0.7189461327011712
0.7403918808654254
0.768326313509317
0.8032873152304798
0.8444025684408871
0.8908203434862397
0.9417569066103613
0.9965195722752723
0.9415466813738188
0.8833826840201684
0.8288665632339753
0.7787647866127017
0.7339818840329452
0.6955459864805325
0.6645592769120013
0.6416720665980459
0.6209669878504009
0.6053098380168622
0.6
0.6
0.6
0.6
0.6
0.6
0.6053098380168622
0.6209669878504009
0.6416720665980459
0.6645592769120013
0.6955459864805325
0.7339818840329452
0.7787647866127017
0.8288665632339755
0.8833826840201683
0.9415466813738188
0.8903757905987849
0.8286276978867146
0.770245853559538
0.7160541097893974
0.6670744346524693
0.6245343181823851
0.5898287275202538
0.5643980004949205
0.5436924768867188
0.5261178575186363
0.52
0.52
0.52
0.52
0.52
0.52
0.5261178575186363
0.5436924768867188
0.5643980004949205
0.5898287275202538
0.6245343181823853
0.6670744346524693
0.7160541097893974
0.7702458535595382
0.8286276978867145
0.8903757905987849
0.8436989651307929
0.7782562283614541
0.7157775982831684
0.6571091107454272
0.6033632377310297
0.5559694324923774
0.5166786458588368
0.48745424021865524
0.46641841078359325
0.44721359549995787
0.43999999999999995
0.43999999999999995
0.43999999999999995
0.43999999999999995
0.43999999999999995
0.43999999999999995
0.44721359549995787
0.4664184107835933
0.48745424021865524
0.5166786458588368
0.5559694324923775
0.6033632377310297
0.6571091107454272
0.7157775982831686
0.7782562283614541
0.8436989651307929
0.802300965374672
0.7331723209871985
0.666480656495281
0.6030350559486619
0.5439725102646555
0.49087768857858677
0.44588756246937533
0.4116679870787941
0.3891443446804679
0.3687817782917155
0.36
0.36
0.36
0.36
0.36
0.36
0.3687817782917155
0.3891443446804679
0.4116679870787941
0.44588756246937533
0.4908776885785868
0.5439725102646555
0.6030350559486619
0.666480656495281
0.7331723209871984
0.802300965374672
0.7670369836712505
0.69440661542076
0.6235826815753789
0.555256854060682
0.4904742472362749
0.4308361642464751
0.3787804293297646
0.3378304705971116
0.31187027857734245
0.2911647549691408
0.28
0.28
0.28
0.28
0.28
0.28
0.2911647549691408
0.3118702785773425
0.3378304705971116
0.3787804293297646
0.4308361642464752
0.4904742472362749
0.555256854060682
0.623582681575379
0.69440661542076
0.7670369836712505
0.7387859159444297
0.6630682037456441
0.5884847118142492
0.5155279519674226
0.44499874435817255
0.3782574463258791
0.3177003445412051
0.26755994121360077
0.23461273486929607
0.21389068886601525
0.19999999999999996
0.19999999999999996
0.19999999999999996
0.19999999999999996
0.19999999999999996
0.19999999999999996
0.21389068886601525
0.23461273486929612
0.26755994121360077
0.3177003445412051
0.37825744632587915
0.44499874435817255
0.5155279519674226
0.5884847118142493
0.6630682037456439
0.7387859159444297
0.7183756154521181
0.6402486533346514
0.562648337167595
0.4858270932524089
0.410222839148078
0.3366564880992716
0.266819047670814
0.204565924387678
0.15906612034374354
0.13661662276288983
0.12
0.12
0.12
0.12
0.12
0.12
0.13661662276288983
0.1590661203437436
0.204565924387678
0.266819047670814
0.33665648809927173
0.410222839148078
0.4858270932524089
0.5626483371675951
0.6402486533346513
0.7183756154521181
0.7064859659997282
0.6268789623006935
0.547386560481548
0.4680671531056676
0.38902657111959527
0.3104778353726634
0.2329190835425895
0.15781670601981548
0.09143809884052696
0.05934255665976442
0.040000000000000036
0.040000000000000036
0.040000000000000036
0.040000000000000036
0.040000000000000036
0.040000000000000036
0.05934255665976442
0.09143809884052705
0.15781670601981548
0.2329190835425895
0.3104778353726635
0.38902657111959527
0.4680671531056676
0.5473865604815481
0.6268789623006934
0.7064859659997282
0.7035490853045926
0.6235672607293892
0.5435907853102175
0.4636224272992024
0.3836672625015447
0.30373571001127664
0.22385306510449987
0.14410068694251438
0.0649601508459582
0.01793150944336111
0.038637033051562776
0.040000000000000036
0.040000000000000036
0.040000000000000036
0.040000000000000036
0.038637033051562776
0.01793150944336111
0.0649601508459583
0.14410068694251438
0.22385306510449987
0.30373571001127675
0.3836672625015447
0.4636224272992024
0.5435907853102177
0.6235672607293891
0.7035490853045926
0.7096761308592029
0.6304720643548878
0.551497812463965
0.4728685339216005
0.39479040463743403
0.3176700754153813
0.2424233694078175
0.17153397114176602
0.11348443274867849
0.095569501918313
0.11591109915468831
0.1200000000000001
0.1200000000000001
0.1200000000000001
0.1200000000000001
0.1159110991546883
0.095569501918313
0.11348443274867855
0.17153397114176602
0.2424233694078175
0.3176700754153814
0.39479040463743403
0.4728685339216005
0.5514978124639651
0.6304720643548876
0.7096761308592029
0.724637223712423
0.6472664978278061
0.5706213564447955
0.4950389334704125
0.4210918651222658
0.3498187703551278
0.28324545064907714
0.22557215815349166
0.18530410614621837
0.1749069037381717
0.19318516525781362
0.19999999999999996
0.19999999999999996
0.19999999999999996
0.19999999999999996
0.19318516525781362
0.1749069037381717
0.18530410614621842
0.22557215815349166
0.28324545064907714
0.34981877035512793
0.4210918651222658
0.4950389334704125
0.5706213564447956
0.647266497827806
0.724637223712423
0.7479024008973416
0.6732108246965679
0.5998896796155591
0.5285096412837548
0.4599752755860995
0.39576769369307213
0.33835910005755493
0.2917904964394549
0.2619093488843204
0.25465922377489836
0.27045923136093913
0.28
0.28
0.28
0.28
0.27045923136093913
0.25465922377489836
0.26190934888432044
0.2917904964394549
0.33835910005755493
0.39576769369307224
0.4599752755860995
0.5285096412837548
0.5998896796155592
0.6732108246965678
0.7479024008973416
0.7787277422478074
0.7072988829108899
0.6379079267320776
0.5712979399649913
0.50856282741552
0.451321351865268
0.4019275754039752
0.36359398934903103
0.34008146422786467
0.3345298425133301
0.3477332974640647
0.3600000000000001
0.3600000000000001
0.3600000000000001
0.3600000000000001
0.3477332974640647
0.3345298425133301
0.34008146422786467
0.36359398934903103
0.4019275754039752
0.4513213518652681
0.50856282741552
0.5712979399649913
0.6379079267320777
0.7072988829108897
0.7787277422478074
0.8162571848533569
0.7484187364339245
0.6832169628060893
0.6214822857383808
0.5643536521607949
0.51337107235201
0.47053657790705045
0.43824591768675136
0.4189442654933087
0.4144503719510371
0.42523396387280515
0.43999999999999995
0.43999999999999995
0.43999999999999995
0.43999999999999995
0.42523396387280515
0.4144503719510371
0.4189442654933087
0.43824591768675136
0.47053657790705045
0.51337107235201
0.5643536521607949
0.6214822857383808
0.6832169628060895
0.7484187364339245
0.8162571848533569
0.8596131031476235
0.7954806725016719
0.7344687287722582
0.6774209376487873
0.6254230088392873
0.5798351086353881
0.5422762823753566
0.5145079004713753
0.49816984339488846
0.49439660808779096
0.5034707730438162
0.52
0.52
0.52
0.52
0.5034707730438162
0.49439660808779096
0.49816984339488846
0.5145079004713753
0.5422762823753566
0.5798351086353882
0.6254230088392873
0.6774209376487873
0.7344687287722583
0.7954806725016716
0.8596131031476235
0.9079612229503232
0.8474953661242471
0.7905081965563019
0.7378062225566561
0.6903715197369796
0.6493594139492952
0.616053943827322
0.5917577840010406
0.5776089405007919
0.5743578164934056
0.5821870099784927
0.6000000000000001
0.6000000000000001
0.6000000000000001
0.6000000000000001
0.5821870099784927
0.5743578164934056
0.5776089405007919
0.5917577840010406
0.616053943827322
0.6493594139492952
0.6903715197369796
0.7378062225566561
0.7905081965563019
0.847495366124247
0.9079612229503232
0.9605480090343252
0.9036079298459212
0.850389383812531
0.8016339047979953
0.7582029613120134
0.7210593205575611
0.6912173008421858
0.669653768901648
0.6571841320549416
0.654328508201677
0.6612114713660503
0.677535085484768
0.6799999999999999
0.6799999999999999
0.677535085484768
0.6612114713660503
0.654328508201677
0.6571841320549416
0.669653768901648
0.6912173008421858
0.7210593205575612
0.7582029613120134
0.8016339047979953
0.8503893838125312
0.9036079298459212
0.9605480090343252
1.0167159745662335
0.9631023757414323
0.9133569944875969
0.8681450412229752
0.8282092886587702
0.794345919005877
0.7673592719593062
0.7479940277051292
0.7368513274081595
0.7343055848376695
0.7404454774960928
0.7550591489181772
0.76
0.76
0.755059148918177
0.7404454774960928
0.7343055848376695
0.7368513274081595
0.7479940277051292
0.7673592719593062
0.7943459190058771
0.8282092886587702
0.8681450412229752
0.9133569944875969
0.9631023757414322
1.0167159745662335
1.0759043954815528
1.025390209353079
0.9788155570166301
0.9367682252715455
0.899883059679993
0.8688177796981661
0.8442151073869008
0.8266522610873942
0.8165835988932955
0.8142871650727105
0.8198282749593214
0.833050546871798
0.8400000000000001
0.8400000000000001
0.833050546871798
0.8198282749593214
0.8142871650727105
0.8165835988932955
0.8266522610873942
0.8442151073869008
0.8688177796981662
0.899883059679993
0.9367682252715455
0.9788155570166301
1.0253902093530787
1.0759043954815528
1.1376419311430486
1.089992649844718
1.0462976583822288
1.0070717964260345
0.9728558045144128
0.9441944871677712
0.9216062298067628
0.9055456123460931
0.8963635809535581
0.8942720405338137
0.8993204632950015
0.9113902067291272
0.9199999999999999
0.9199999999999999
0.9113902067291272
0.8993204632950015
0.8942720405338137
0.8963635809535581
0.9055456123460931
0.9216062298067628
0.9441944871677713
0.9728558045144128
1.0070717964260345
1.046297658382229
1.089992649844718
1.1376419311430486
1.2015357084886178
1.1565218856527835
1.1154360964279824
1.078727258594646
1.0468559173333
1.020275514200145
0.9994082939904969
0.984617566021255
0.976179575968605
0.9742593996256186
0.9788953932772878
0.9899954566563025
1
1
0.9899954566563025
0.9788953932772878
0.9742593996256186
0.976179575968605
0.984617566021255
0.9994082939904969
1.0202755142001452
1.0468559173333
1.078727258594646
1.1154360964279824
1.1565218856527835
1.2015357084886178

SCALARS phi2 double 1
LOOKUP_TABLE default
1.243871246075836
1.2004459546497204
1.1609157175503755
1.1256909506947848
1.095187166513904
1.0698082739058334
1.04992597650406
1.0358568286006657
1.0278395704482552
1.0260160796985003
1.030419239446015
1.0409700390698713
1.0574844847380762
1.0574844847380762
1.0409700390698713
1.030419239446015
1.0260160796985003
1.0278395704482555
1.0358568286006657
1.04992597650406
1.0698082739058334
1.095187166513904
1.1256909506947848
1.1609157175503755
1.2004459546497204
1.243871246075836
1.1787597601261306
1.132841288668999
1.0908639688493993
1.0532991083991707
1.0206340308725323
0.9933522226258611
0.971907120776653
0.9566913110491746
0.9480047878874946
0.9460274261765559
0.9508010855583117
0.9622252945747628
0.9800675133581941
0.9800675133581941
0.9622252945747627
0.9508010855583117
0.9460274261765559
0.9480047878874946
0.9566913110491746
0.971907120776653
0.9933522226258612
1.0206340308725323
1.0532991083991707
1.0908639688493993
1.132841288668999
1.1787597601261306
1.115586602362619
1.0669528014826135
1.022273492668289
0.9820885433772496
0.9469702847784996
0.9175006994406587
0.8942384171431705
0.8776771387676382
0.8682004222159612
0.8660408687565492
0.8712528907138406
0.8837060669690169
0.9031008947058317
0.9031008947058317
0.8837060669690168
0.8712528907138406
0.8660408687565492
0.8682004222159612
0.8776771387676382
0.8942384171431705
0.9175006994406587
0.9469702847784996
0.9820885433772496
1.022273492668289
1.0669528014826135
1.115586602362619
1.0547001292544398
1.0031187247130608
0.9554590462655018
0.9123359043198989
0.8744207314169951
0.8424170159442754
0.8170197316913973
0.7988592211358069
0.7884357097533907
0.7860570473158791
0.7917957406147013
0.805478310121513
0.8267104216694219
0.8267104216694219
0.8054783101215129
0.7917957406147013
0.7860570473158791
0.7884357097533907
0.7988592211358069
0.8170197316913973
0.8424170159442755
0.8744207314169951
0.9123359043198989
0.9554590462655019
1.0031187247130606
1.0547001292544398
0.9965195722752723
0.9417569066103614
0.8908203434862396
0.8444025684408871
0.8032873152304798
0.768326313509317
0.7403918808654254
0.7203019856088608
0.7087240391666509
0.7060768916437626
0.7124600972222533
0.727636037696435
0.7510719117203045
0.7510719117203045
0.727636037696435
0.7124600972222533
0.7060768916437626
0.7087240391666509
0.7203019856088608
0.7403918808654254
0.768326313509317
0.8032873152304798
0.8444025684408871
0.8908203434862397
0.9417569066103613
0.9965195722752723
0.9415466813738188
0.8833826840201684
0.8288665632339753
0.7787647866127017
0.7339818840329452
0.6955459864805325
0.6645592769120013
0.6421011180105725
0.6290855736472203
0.6261018065711657
0.6332916274610794
0.6503176905428051
0.6764376629472613
0.6764376629472613
0.6503176905428051
0.6332916274610794
0.6261018065711657
0.6290855736472203
0.6421011180105725
0.6645592769120013
0.6955459864805325
0.7339818840329452
0.7787647866127017
0.8288665632339755
0.8833826840201683
0.9415466813738188
0.8903757905987849
0.8286276978867146
0.770245853559538
0.7160541097893974
0.6670744346524693
0.6245343181823851
0.5898287275202538
0.5644047670145841
0.5495521397005129
0.5461340196966649
0.5543619581921745
0.5737351252200682
0.6031805758907629
0.6031805758907629
0.5737351252200681
0.5543619581921745
0.5461340196966649
0.5495521397005129
0.5644047670145841
0.5898287275202538
0.6245343181823853
0.6670744346524693
0.7160541097893974
0.7702458535595382
0.8286276978867145
0.8903757905987849
0.8436989651307929
0.7782562283614541
0.7157775982831684
0.6571091107454272
0.6033632377310297
0.5559694324923774
0.5166786458588368
0.48745424021865524
0.4701770406216913
0.4661772868216519
0.47578994941993236
0.49822774831360694
0.5318700051800928
0.5318700051800928
0.4982277483136069
0.47578994941993236
0.4661772868216519
0.4701770406216913
0.48745424021865524
0.5166786458588368
0.5559694324923775
0.6033632377310297
0.6571091107454272
0.7157775982831686
0.7782562283614541
0.8436989651307929
0.802300965374672
0.7331723209871985
0.666480656495281
0.6030350559486619
0.5439725102646555
0.49087768857858677
0.44588756246937533
0.4116679870787941
0.3910567028016925
0.3862384730017925
0.39778759564292787
0.4243698675306796
0.4634054355406631
0.4634054355406631
0.4243698675306796
0.39778759564292787
0.3862384730017925
0.3910567028016925
0.4116679870787941
0.44588756246937533
0.4908776885785868
0.5439725102646555
0.6030350559486619
0.666480656495281
0.7331723209871984
0.802300965374672
0.7670369836712505
0.69440661542076
0.6235826815753789
0.555256854060682
0.4904742472362749
0.4308361642464751
0.3787804293297646
0.3378304705971116
0.31238476288783834
0.3063316067680841
0.32077073826292385
0.3531977912535217
0.39925366994805617
0.39925366994805617
0.35319779125352163
0.32077073826292385
0.3063316067680841
0.3123847628878384
0.3378304705971116
0.3787804293297646
0.4308361642464752
0.4904742472362749
0.555256854060682
0.623582681575379
0.69440661542076
0.7670369836712505
0.7387859159444297
0.6630682037456441
0.5884847118142492
0.5155279519674226
0.44499874435817255
0.3782574463258791
0.3177003445412051
0.26755994121360077
0.23461273486929607
0.2264905044002413
0.2456679910043244
0.2867186338986811
0.3418514125250194
0.3418514125250194
0.286718633898681
0.2456679910043244
0.2264905044002413
0.23461273486929612
0.26755994121360077
0.3177003445412051
0.37825744632587915
0.44499874435817255
0.5155279519674226
0.5884847118142493
0.6630682037456439
0.7387859159444297
0.7183756154521181
0.6402486533346514
0.562648337167595
0.4858270932524089
0.410222839148078
0.3366564880992716
0.266819047670814
0.204565924387678
0.15906612034374354
0.1468224909945183
0.17496187322517015
0.22905560526449817
0.2951631472994396
0.2951631472994396
0.22905560526449809
0.17496187322517015
0.1468224909945183
0.1590661203437436
0.204565924387678
0.266819047670814
0.33665648809927173
0.410222839148078
0.4858270932524089
0.5626483371675951
0.6402486533346513
0.7183756154521181
0.7064859659997282
0.6268789623006935
0.547386560481548
0.4680671531056676
0.38902657111959527
0.3104778353726634
0.2329190835425895
0.15781670601981548
0.09143809884052696
0.06793923123052746
0.11692113735685343
0.18848173805821422
0.2649154182037549
0.2649154182037549
0.1884817380582141
0.11692113735685343
0.06793923123052746
0.09143809884052705
0.15781670601981548
0.2329190835425895
0.3104778353726635
0.38902657111959527
0.4680671531056676
0.5473865604815481
0.6268789623006934
0.7064859659997282
0.7035490853045926
0.6235672607293892
0.5435907853102175
0.4636224272992024
0.3836672625015447
0.30373571001127664
0.22385306510449987
0.14410068694251438
0.0649601508459582
0.02178610608977067
0.09761888976617102
0.1771560353468234
0.2569806881468528
0.2569806881468528
0.1771560353468233
0.09761888976617102
0.02178610608977067
0.0649601508459583
0.14410068694251438
0.22385306510449987
0.30373571001127675
0.3836672625015447
0.4636224272992024
0.5435907853102177
0.6235672607293891
0.7035490853045926
0.7096761308592029
0.6304720643548878
0.551497812463965
0.4728685339216005
0.39479040463743403
0.3176700754153813
0.2424233694078175
0.17153397114176602
0.11348443274867849
0.095569501918313
0.13486416469003001
0.2001078612602829
0.2733092924852532
0.2733092924852532
0.2001078612602828
0.13486416469003001
0.095569501918313
0.11348443274867855
0.17153397114176602
0.2424233694078175
0.3176700754153814
0.39479040463743403
0.4728685339216005
0.5514978124639651
0.6304720643548876
0.7096761308592029
0.724637223712423
0.6472664978278061
0.5706213564447955
0.4950389334704125
0.4210918651222658
0.3498187703551278
0.28324545064907714
0.22557215815349166
0.18530410614621837
0.1749069037381717
0.1991161424794564
0.24799607137316562
0.31009170359290383
0.31009170359290383
0.24799607137316554
0.1991161424794564
0.1749069037381717
0.18530410614621842
0.22557215815349166
0.28324545064907714
0.34981877035512793
0.4210918651222658
0.4950389334704125
0.5706213564447956
0.647266497827806
0.724637223712423
0.7479024008973416
0.6732108246965679