# vtk DataFile Version 4.1
Header:
ASCII

DATASET UNSTRUCTURED_GRID
POINTS 676 double
-1 -1 0
-0.92 -1 0
-0.84 -1 0
-0.76 -1 0
-0.6799999999999999 -1 0
-0.6 -1 0
-0.52 -1 0
-0.43999999999999995 -1 0
-0.36 -1 0
-0.28 -1 0
-0.19999999999999996 -1 0
-0.12 -1 0
-0.040000000000000036 -1 0
0.040000000000000036 -1 0
0.1200000000000001 -1 0
0.19999999999999996 -1 0
0.28 -1 0
0.3600000000000001 -1 0
0.43999999999999995 -1 0
0.52 -1 0
0.6000000000000001 -1 0
0.6799999999999999 -1 0
0.76 -1 0
0.8400000000000001 -1 0
0.9199999999999999 -1 0
1 -1 0
-1 -0.92 0
-0.92 -0.92 0
-0.84 -0.92 0
-0.76 -0.92 0
-0.6799999999999999 -0.92 0
-0.6 -0.92 0
-0.52 -0.92 0
-0.43999999999999995 -0.92 0
-0.36 -0.92 0
-0.28 -0.92 0
-0.19999999999999996 -0.92 0
-0.12 -0.92 0
-0.040000000000000036 -0.92 0
0.040000000000000036 -0.92 0
0.1200000000000001 -0.92 0
0.19999999999999996 -0.92 0
0.28 -0.92 0
0.3600000000000001 -0.92 0
0.43999999999999995 -0.92 0
0.52 -0.92 0
0.6000000000000001 -0.92 0
0.6799999999999999 -0.92 0
0.76 -0.92 0
0.8400000000000001 -0.92 0
0.9199999999999999 -0.92 0
1 -0.92 0
-1 -0.84 0
-0.92 -0.84 0
-0.84 -0.84 0
-0.76 -0.84 0
-0.6799999999999999 -0.84 0
-0.6 -0.84 0
-0.52 -0.84 0
-0.43999999999999995 -0.84 0
-0.36 -0.84 0
-0.28 -0.84 0
-0.19999999999999996 -0.84 0
-0.12 -0.84 0
-0.040000000000000036 -0.84 0
0.040000000000000036 -0.84 0
0.1200000000000001 -0.84 0
0.19999999999999996 -0.84 0
0.28 -0.84 0
0.3600000000000001 -0.84 0
0.43999999999999995 -0.84 0
0.52 -0.84 0
0.6000000000000001 -0.84 0
0.6799999999999999 -0.84 0
0.76 -0.84 0
0.8400000000000001 -0.84 0
0.9199999999999999 -0.84 0
1 -0.84 0
-1 -0.76 0
-0.92 -0.76 0
-0.84 -0.76 0
-0.76 -0.76 0
-0.6799999999999999 -0.76 0
-0.6 -0.76 0
-0.52 -0.76 0
-0.43999999999999995 -0.76 0
-0.36 -0.76 0
-0.28 -0.76 0
-0.19999999999999996 -0.76 0
-0.12 -0.76 0
-0.040000000000000036 -0.76 0
0.040000000000000036 -0.76 0
0.1200000000000001 -0.76 0
0.19999999999999996 -0.76 0
0.28 -0.76 0
0.3600000000000001 -0.76 0
0.43999999999999995 -0.76 0
0.52 -0.76 0
0.6000000000000001 -0.76 0
0.6799999999999999 -0.76 0
0.76 -0.76 0
0.8400000000000001 -0.76 0
0.9199999999999999 -0.76 0
1 -0.76 0
-1 -0.6799999999999999 0
-0.92 -0.6799999999999999 0
-0.84 -0.6799999999999999 0
-0.76 -0.6799999999999999 0
-0.6799999999999999 -0.6799999999999999 0
-0.6 -0.6799999999999999 0
-0.52 -0.6799999999999999 0
-0.43999999999999995 -0.6799999999999999 0
-0.36 -0.6799999999999999 0
-0.28 -0.6799999999999999 0
-0.19999999999999996 -0.6799999999999999 0
-0.12 -0.6799999999999999 0
-0.040000000000000036 -0.6799999999999999 0
0.040000000000000036 -0.6799999999999999 0
0.1200000000000001 -0.6799999999999999 0
0.19999999999999996 -0.6799999999999999 0
0.28 -0.6799999999999999 0
0.3600000000000001 -0.6799999999999999 0
0.43999999999999995 -0.6799999999999999 0
0.52 -0.6799999999999999 0
0.6000000000000001 -0.6799999999999999 0
0.6799999999999999 -0.6799999999999999 0
0.76 -0.6799999999999999 0
0.8400000000000001 -0.6799999999999999 0
0.9199999999999999 -0.6799999999999999 0
1 -0.6799999999999999 0
-1 -0.6 0
-0.92 -0.6 0
-0.84 -0.6 0
-0.76 -0.6 0
-0.6799999999999999 -0.6 0
-0.6 -0.6 0
-0.52 -0.6 0
-0.43999999999999995 -0.6 0
-0.36 -0.6 0
-0.28 -0.6 0
-0.19999999999999996 -0.6 0
-0.12 -0.6 0
-0.040000000000000036 -0.6 0
0.040000000000000036 -0.6 0
0.1200000000000001 -0.6 0
0.19999999999999996 -0.6 0
0.28 -0.6 0
0.3600000000000001 -0.6 0
0.43999999999999995 -0.6 0
0.52 -0.6 0
0.6000000000000001 -0.6 0
0.6799999999999999 -0.6 0
0.76 -0.6 0
0.8400000000000001 -0.6 0
0.9199999999999999 -0.6 0
1 -0.6 0
-1 -0.52 0
-0.92 -0.52 0
-0.84 -0.52 0
-0.76 -0.52 0
-0.6799999999999999 -0.52 0
-0.6 -0.52 0
-0.52 -0.52 0
-0.43999999999999995 -0.52 0
-0.36 -0.52 0
-0.28 -0.52 0
-0.19999999999999996 -0.52 0
-0.12 -0.52 0
-0.040000000000000036 -0.52 0
0.040000000000000036 -0.52 0
0.1200000000000001 -0.52 0
0.19999999999999996 -0.52 0
0.28 -0.52 0
0.3600000000000001 -0.52 0
0.43999999999999995 -0.52 0
0.52 -0.52 0
0.6000000000000001 -0.52 0
0.6799999999999999 -0.52 0
0.76 -0.52 0
0.8400000000000001 -0.52 0
0.9199999999999999 -0.52 0
1 -0.52 0
-1 -0.43999999999999995 0
-0.92 -0.43999999999999995 0
-0.84 -0.43999999999999995 0
-0.76 -0.43999999999999995 0
-0.6799999999999999 -0.43999999999999995 0
-0.6 -0.43999999999999995 0
-0.52 -0.43999999999999995 0
-0.43999999999999995 -0.43999999999999995 0
-0.36 -0.43999999999999995 0
-0.28 -0.43999999999999995 0
-0.19999999999999996 -0.43999999999999995 0
-0.12 -0.43999999999999995 0
-0.040000000000000036 -0.43999999999999995 0
0.040000000000000036 -0.43999999999999995 0
0.1200000000000001 -0.43999999999999995 0
0.19999999999999996 -0.43999999999999995 0
0.28 -0.43999999999999995 0
0.3600000000000001 -0.43999999999999995 0
0.43999999999999995 -0.43999999999999995 0
0.52 -0.43999999999999995 0
0.6000000000000001 -0.43999999999999995 0
0.6799999999999999 -0.43999999999999995 0
0.76 -0.43999999999999995 0
0.8400000000000001 -0.43999999999999995 0
0.9199999999999999 -0.43999999999999995 0
1 -0.43999999999999995 0
-1 -0.36 0
-0.92 -0.36 0
-0.84 -0.36 0
-0.76 -0.36 0
-0.6799999999999999 -0.36 0
-0.6 -0.36 0
-0.52 -0.36 0
-0.43999999999999995 -0.36 0
-0.36 -0.36 0
-0.28 -0.36 0
-0.19999999999999996 -0.36 0
-0.12 -0.36 0
-0.040000000000000036 -0.36 0
0.040000000000000036 -0.36 0
0.1200000000000001 -0.36 0
0.19999999999999996 -0.36 0
0.28 -0.36 0
0.3600000000000001 -0.36 0
0.43999999999999995 -0.36 0
0.52 -0.36 0
0.6000000000000001 -0.36 0
0.6799999999999999 -0.36 0
0.76 -0.36 0
0.8400000000000001 -0.36 0
0.9199999999999999 -0.36 0
1 -0.36 0
-1 -0.28 0
-0.92 -0.28 0
-0.84 -0.28 0
-0.76 -0.28 0
-0.6799999999999999 -0.28 0
-0.6 -0.28 0
-0.52 -0.28 0
-0.43999999999999995 -0.28 0
-0.36 -0.28 0
-0.28 -0.28 0
-0.19999999999999996 -0.28 0
-0.12 -0.28 0
-0.040000000000000036 -0.28 0
0.040000000000000036 -0.28 0
0.1200000000000001 -0.28 0
0.19999999999999996 -0.28 0
0.28 -0.28 0
0.3600000000000001 -0.28 0
0.43999999999999995 -0.28 0
0.52 -0.28 0
0.6000000000000001 -0.28 0
0.6799999999999999 -0.28 0
0.76 -0.28 0
0.8400000000000001 -0.28 0
0.9199999999999999 -0.28 0
1 -0.28 0
-1 -0.19999999999999996 0
-0.92 -0.19999999999999996 0
-0.84 -0.19999999999999996 0
-0.76 -0.19999999999999996 0
-0.6799999999999999 -0.19999999999999996 0
-0.6 -0.19999999999999996 0
-0.52 -0.19999999999999996 0
-0.43999999999999995 -0.19999999999999996 0
-0.36 -0.19999999999999996 0
-0.28 -0.19999999999999996 0
-0.19999999999999996 -0.19999999999999996 0
-0.12 -0.19999999999999996 0
-0.040000000000000036 -0.19999999999999996 0
0.040000000000000036 -0.19999999999999996 0
0.1200000000000001 -0.19999999999999996 0
0.19999999999999996 -0.19999999999999996 0
0.28 -0.19999999999999996 0
0.3600000000000001 -0.19999999999999996 0
0.43999999999999995 -0.19999999999999996 0
0.52 -0.19999999999999996 0
0.6000000000000001 -0.19999999999999996 0
0.6799999999999999 -0.19999999999999996 0
0.76 -0.19999999999999996 0
0.8400000000000001 -0.19999999999999996 0
0.9199999999999999 -0.19999999999999996 0
1 -0.19999999999999996 0
-1 -0.12 0
-0.92 -0.12 0
-0.84 -0.12 0
-0.76 -0.12 0
-0.6799999999999999 -0.12 0
-0.6 -0.12 0
-0.52 -0.12 0
-0.43999999999999995 -0.12 0
-0.36 -0.12 0
-0.28 -0.12 0
-0.19999999999999996 -0.12 0
-0.12 -0.12 0
-0.040000000000000036 -0.12 0
0.040000000000000036 -0.12 0
0.1200000000000001 -0.12 0
0.19999999999999996 -0.12 0
0.28 -0.12 0
0.3600000000000001 -0.12 0
0.43999999999999995 -0.12 0
0.52 -0.12 0
0.6000000000000001 -0.12 0
0.6799999999999999 -0.12 0
0.76 -0.12 0
0.8400000000000001 -0.12 0
0.9199999999999999 -0.12 0
1 -0.12 0
-1 -0.040000000000000036 0
-0.92 -0.040000000000000036 0
-0.84 -0.040000000000000036 0
-0.76 -0.040000000000000036 0
-0.6799999999999999 -0.040000000000000036 0
-0.6 -0.040000000000000036 0
-0.52 -0.040000000000000036 0
-0.43999999999999995 -0.040000000000000036 0
-0.36 -0.040000000000000036 0
-0.28 -0.040000000000000036 0
-0.19999999999999996 -0.040000000000000036 0
-0.12 -0.040000000000000036 0
-0.040000000000000036 -0.040000000000000036 0
0.040000000000000036 -0.040000000000000036 0
0.1200000000000001 -0.040000000000000036 0
0.19999999999999996 -0.040000000000000036 0
0.28 -0.040000000000000036 0
0.3600000000000001 -0.040000000000000036 0
0.43999999999999995 -0.040000000000000036 0
0.52 -0.040000000000000036 0
0.6000000000000001 -0.040000000000000036 0
0.6799999999999999 -0.040000000000000036 0
0.76 -0.040000000000000036 0
0.8400000000000001 -0.040000000000000036 0
0.9199999999999999 -0.040000000000000036 0
1 -0.040000000000000036 0
-1 0.040000000000000036 0
-0.92 0.040000000000000036 0
-0.84 0.040000000000000036 0
-0.76 0.040000000000000036 0
-0.6799999999999999 0.040000000000000036 0
-0.6 0.040000000000000036 0
-0.52 0.040000000000000036 0
-0.43999999999999995 0.040000000000000036 0
-0.36 0.040000000000000036 0
-0.28 0.040000000000000036 0
-0.19999999999999996 0.040000000000000036 0
-0.12 0.040000000000000036 0
-0.040000000000000036 0.040000000000000036 0
0.040000000000000036 0.040000000000000036 0
0.1200000000000001 0.040000000000000036 0
0.19999999999999996 0.040000000000000036 0
0.28 0.040000000000000036 0
0.3600000000000001 0.040000000000000036 0
0.43999999999999995 0.040000000000000036 0
0.52 0.040000000000000036 0
0.6000000000000001 0.040000000000000036 0
0.6799999999999999 0.040000000000000036 0
0.76 0.040000000000000036 0
0.8400000000000001 0.040000000000000036 0
0.9199999999999999 0.040000000000000036 0
1 0.040000000000000036 0
-1 0.1200000000000001 0
-0.92 0.1200000000000001 0
-0.84 0.1200000000000001 0
-0.76 0.1200000000000001 0
-0.6799999999999999 0.1200000000000001 0
-0.6 0.1200000000000001 0
-0.52 0.1200000000000001 0
-0.43999999999999995 0.1200000000000001 0
-0.36 0.1200000000000001 0
-0.28 0.1200000000000001 0
-0.19999999999999996 0.1200000000000001 0
-0.12 0.1200000000000001 0
-0.040000000000000036 0.1200000000000001 0
0.040000000000000036 0.1200000000000001 0
0.1200000000000001 0.1200000000000001 0
0.19999999999999996 0.1200000000000001 0
0.28 0.1200000000000001 0
[...]
POINT_DATA 676
SCALARS phi1 double 1
LOOKUP_TABLE default
1.2401434992741867
1.2001434992741868
1.1609157175503755
1.1256909506947848
1.095187166513904
1.0698082739058334
1.0487479207218748
1.0283968105745953
1.012719112093773
1.0031948963187562
1
1
1
1
1
1
1.0031948963187562
1.012719112093773
1.0283968105745953
1.0487479207218748
1.0698082739058334
1.095187166513904
1.1256909506947848
1.1609157175503755
1.2001434992741866
1.2401434992741867
1.171421795944093
1.1308614669714314
1.0908639688493993
1.0532991083991707
1.0206340308725323
0.9933522226258611
0.9714738546187495
0.950789145920377
0.9338094023943002
0.9234717104492156
0.92
0.92
0.92
0.92
0.92
0.92
0.9234717104492156
0.9338094023943002
0.950789145920377
0.9714738546187495
0.9933522226258612
1.0206340308725323
1.0532991083991707
1.0908639688493993
1.1308614669714314
1.171421795944093
1.104213710878127
1.0616021566351586
1.0215794346686764
0.9820885433772496
0.9469702847784996
0.9175006994406587
0.8941997885156239
0.8734942649074222
0.8551023330572779
0.8438009243891593
0.84
0.84
0.84
0.84
0.84
0.84
0.8438009243891593
0.855102333057278
0.8734942649074222
0.8941997885156239
0.9175006994406587
0.9469702847784996
0.9820885433772496
1.0215794346686764
1.0616021566351586
1.104213710878127
1.038819914407499
0.9934072851810478
0.9522974023659214
0.9122974023659215
0.8744207314169951
0.8424170159442754
0.8170197316913973
0.7962201988042968
0.776659513557904
0.764198926981712
0.76
0.76
0.76
0.76
0.76
0.76
0.764198926981712
0.776659513557904
0.7962201988042968
0.8170197316913973
0.8424170159442755
0.8744207314169951
0.9122974023659214
0.9522974023659214
0.9934072851810478
1.038819914407499
0.9756053043357048
0.9271013588217522
0.8831920228411911
0.8430153700631662
0.8032873152304798
0.768326313509317
0.7403918808654254
0.7189461327011714
0.6985699678629191
0.6846897107449476
0.6799999999999999
0.6799999999999999
0.6799999999999999
0.6799999999999999
0.6799999999999999
0.6799999999999999
0.6846897107449476
0.6985699678629191
0.7189461327011712
0.7403918808654254
0.768326313509317
0.8032873152304798
0.8430153700631662
0.8831920228411912
0.9271013588217522
0.9756053043357048
0.9150216418895908
0.863119820654988
0.8157738929928284
0.773733337760411
0.733733337760411
0.6955459864805325
0.6645592769120013
0.6416720665980459
0.6209669878504009
0.6053098380168622
0.6
0.6
0.6
0.6
0.6
0.6
0.6053098380168622
0.6209669878504009
0.6416720665980459
0.6645592769120013
0.6955459864805325
0.733733337760411
0.7737333377604112
0.8157738929928285
0.863119820654988
0.9150216418895908
0.8574990466559905
0.8020191519445521
0.7508301670597916
0.705022807750367
0.6644513054576561
0.6245343181823851
0.5898287275202538
0.5643980004949205
0.5436924768867188
0.5261178575186363
0.52
0.52
0.52
0.52
0.52
0.52
0.5261178575186363
0.5436924768867188
0.5643980004949205
0.5898287275202538
0.6245343181823853
0.6644513054576561
0.705022807750367
0.7508301670597918
0.8020191519445521
0.8574990466559906
0.8009305041610667
0.744361961666143
0.6890608355184571
0.638839615808671
0.595169273154901
0.5551692731549009
0.5166786458588368
0.48745424021865524
0.46641841078359325
0.44721359549995787
0.43999999999999995
0.43999999999999995
0.43999999999999995
0.43999999999999995
0.43999999999999995
0.43999999999999995
0.44721359549995787
0.4664184107835933
0.48745424021865524
0.5166786458588368
0.5551692731549009
0.595169273154901
0.638839615808671
0.6890608355184572
0.744361961666143
0.8009305041610668
0.744885842809793
0.6877934191712192
0.6312248766762955
0.576172673774911
0.5273387617899011
0.4858872408521458
0.44588724085214587
0.4116679870787941
0.3891443446804679
0.3687817782917155
0.36
0.36
0.36
0.36
0.36
0.36
0.3687817782917155
0.3891443446804679
0.4116679870787941
0.44588724085214587
0.48588724085214585
0.5273387617899011
0.576172673774911
0.6312248766762955
0.6877934191712192
0.744885842809793
0.6929647217556104
0.631842570406578
0.5746563341813716
0.5180877916864478
0.46340593971642813
0.4167208713823222
0.3766052085493908
0.3378304705971116
0.31187027857734245
0.2911647549691408
0.28
0.28
0.28
0.28
0.28
0.28
0.2911647549691408
0.3118702785773425
0.3378304705971116
0.3766052085493908
0.4167208713823223
0.46340593971642813
0.5180877916864478
0.5746563341813716
0.6318425704065779
0.6929647217556104
0.646796175295746
0.5808357948313502
0.5188401957612065
0.46151924919152393
0.4049507066966001
0.3508777278825226
0.30732317624663563
0.2673231762466356
0.23461273486929607
0.21389068886601525
0.19999999999999996
0.19999999999999996
0.19999999999999996
0.19999999999999996
0.19999999999999996
0.19999999999999996
0.21389068886601525
0.23461273486929612
0.2673231762466356
0.30732317624663563
0.35087772788252264
0.4049507066966001
0.46151924919152393
0.5188401957612067
0.5808357948313501
0.646796175295746
0.606227740398644
0.5369457080958889
0.46919115029687214
0.40591287697862327
0.3483821642016763
0.29181362170675257
0.23892529142712665
0.1980411439438805
0.15906612034374354
0.13661662276288983
0.12
0.12
0.12
0.12
0.12
0.12
0.13661662276288983
0.1590661203437436
0.1980411439438805
0.23892529142712665
0.2918136217067526
0.34838216420167634
0.40591287697862327
0.4691911502968722
0.5369457080958888
0.606227740398644
0.5663435612695105
0.4969457080958889
0.42766367579313375
0.3584835428251036
0.2931473667911734
0.23524507921182877
0.17867653671690503
0.12875911164112544
0.08875911164112547
0.05934255665976442
0.040000000000000036
0.040000000000000036
0.040000000000000036
0.040000000000000036
0.040000000000000036
0.040000000000000036
0.05934255665976442
0.08875911164112553
0.12875911164112544
0.17867653671690503
0.23524507921182883
0.2931473667911734
0.3584835428251036
0.42766367579313386
0.4969457080958888
0.5663435612695105
0.5323850201783064
0.45875782052234987
0.38766437297045675
0.3183816434903787
0.24909961118762353
0.18084660244564882
0.12210799422198114
0.0655394517270573
0.01947707933837031
0.01793150944336111
0.038637033051562776
0.040000000000000036
0.040000000000000036
0.040000000000000036
0.040000000000000036
0.038637033051562776
0.01793150944336111
0.019477079338370364
0.0655394517270573
0.12210799422198114
0.1808466024456489
0.2490996111876235
0.3183816434903787
0.38766437297045686
0.45875782052234976
0.5323850201783064
0.5084872526116012
0.4312163241451331
0.35464411230048826
0.2799953116921107
0.20909961118762346
0.13981757888486843
0.07053554658211339
0.008970909232133431
0.047597633262790325
0.08980495296438482
0.11591109915468831
0.1200000000000001
0.1200000000000001
0.1200000000000001
0.1200000000000001
0.1159110991546883
0.08980495296438483
0.047597633262790234
0.008970909232133428
0.07053554658211339
0.13981757888486854
0.20909961118762346
0.2799953116921107
0.3546441123004883
0.43121632414513295
0.5084872526116012
0.4877817290033996
0.4105076629002742
0.3332335967971487
0.2559595306940233
0.17868546459089774
0.10166617553890739
0.030535546582113444
0.03874648572064168
0.10416617575771404
0.1590869852671398
0.19318516525781362
0.19999999999999996
0.19999999999999996
0.19999999999999996
0.19999999999999996
0.19318516525781362
0.1590869852671398
0.10416617575771397
0.038746485720641696
0.030535546582113444
0.10166617553890749
0.17868546459089774
0.2559595306940233
0.33323359679714876
0.4105076629002741
0.4877817290033996
0.4728407949863646
0.3933757113818017
0.31418224521277416
0.2355345327308524
0.15797994098269605
0.08070587487957064
0.003431808776445213
0.0738422573266803
0.14802851802339678
0.21730326074756168
0.268369017569895
0.28
0.28
0.28
0.28
0.268369017569895
0.21730326074756168
0.1480285180233967
0.0738422573266803
0.003431808776445214
0.08070587487957073
0.15797994098269605
0.2355345327308524
0.3141822452127742
0.3933757113818016
0.4728407949863646
0.4711819017126359
0.39138014436521606
0.3116800447656836
0.23218631141163296
0.15322048201445196
0.07643656854243416
0.031758178668548735
0.09473444365247889
0.1718218470380074
0.24909591314113283
0.3263699792442583
0.3600000000000001
0.3600000000000001
0.3600000000000001
0.3600000000000001
0.32636997924425837
0.24909591314113283
0.17182184703800732
0.09473444365247889
0.031758178668548735
0.07643656854243426
0.15322048201445196
0.23218631141163296
0.31168004476568373
0.39138014436521595
0.4711819017126359
0.4829558484993581
0.4054779704269224
0.3292087747969931
0.255234108819998
0.1863074963788086
0.13067714455382404
0.11064605284664361
0.14215689189182312
0.20242187335894485
0.2730213319796567
0.3477163795649368
0.42434975376397754
0.43999999999999995
0.43999999999999995
0.42434975376397743
0.3477163795649368
0.2730213319796567
0.20242187335894476
0.14215689189182312
0.11064605284664361
0.1306771445538241
0.1863074963788086
0.255234108819998
0.32920877479699323
0.4054779704269223
0.4829558484993581
0.5072280736492547
0.4341040792249423
0.36388512541946005
0.2986275563362119
0.24237254445406684
0.20275720260188007
0.19046394963021498
0.21033912857702514
0.2549678056389542
0.31396594530959043
0.3807107139495105
0.4517816736187372
0.52
0.52
0.4517816736187371
0.3807107139495105
0.31396594530959043
0.2549678056389541
0.21033912857702514
0.19046394963021498
0.2027572026018801
0.24237254445406684
0.2986275563362119
0.3638851254194601
0.4341040792249422
0.5072280736492547
0.5423230456067053
0.47463703890228987
0.4113956144634201
0.35498223124761646
0.30915759315167635
0.279185333255776
0.2703895027676554
0.28473938278492694
0.31912779416801407
0.36797905091505356
0.42635034280993
0.49085705425912546
0.5593806223116307
0.5593806223116307
0.49085705425912535
0.42635034280993
0.36797905091505356
0.319127794168014
0.28473938278492694
0.2703895027676554
0.279185333255776
0.30915759315167635
0.35498223124761646
0.41139561446342016
0.4746370389022898
0.5423230456067053
0.586300480039315
0.5243226924291304
0.46784646915193634
0.4191018391748418
0.3810674277625105
0.35718121087668847
0.3503490406796323
0.3615390479698422
0.38919984083853515
0.4301657227285111
0.48104945890453255
0.5390497331546921
0.6021134840841433
0.6021134840841433
0.539049733154692
0.48104945890453255
0.4301657227285111
0.3891998408385351
0.3615390479698422
0.3503490406796323
0.3571812108766885
0.3810674277625105
0.4191018391748418
0.4678464691519364
0.5243226924291304
0.586300480039315
0.6373242659686905
0.5808168841333139
0.5303906916567566
0.48793474840180606
0.4556822923921172
0.43590410012012537
0.4303236193881734
0.43948202500800726
0.46250457641729337
0.49747011579464867
0.5420724573436123
0.5941452532103102
0.6519007706807416
0.6519007706807416
0.5941452532103101
0.5420724573436123
0.49747011579464867
0.4625045764172933
0.43948202500800726
0.4303236193881734
0.43590410012012537
0.4556822923921172
0.48793474840180606
0.5303906916567566
0.5808168841333139
0.6373242659686905
0.6938416152773837
0.6423256339214015
0.5971166158250258
0.5597448399013006
0.5318649440393057
0.5150207292912928
0.5103061674147553
0.5180525237882135
0.5377215360250497
0.5680761244823972
0.6075166796959086
0.6544024365866484
0.7072542554925658
0.7072542554925658
0.6544024365866484
0.6075166796959086
0.5680761244823972
0.5377215360250496
0.5180525237882135
0.5103061674147553
0.5150207292912928
0.5318649440393057
0.5597448399013006
0.5971166158250258
0.6423256339214014
0.6938416152773837
0.7546192113834153
0.7075423571000742
0.6667699903208978
0.6335205228675164
0.6090273276267104
0.5943738879677789
0.5902934453301467
0.597002834584172
0.6141485304088397
0.6408934781265438
0.6760994625104652
0.7185238451914739
0.7669697184443088
0.7669697184443088
0.7185238451914738
0.6760994625104652
0.6408934781265438
0.6141485304088397
0.597002834584172
0.5902934453301467
0.5943738879677789
0.6090273276267104
0.6335205228675164
0.6667699903208978
0.7075423571000742
0.7546192113834153
0.8187088134905636
0.775532174825086
0.7385229766843608
0.7086481637544334
0.6868393210164452
0.6738800232950466
0.6702837598345449
0.6761999346345244
0.6913843970625432
0.715247102338302
0.7469567927967043
0.7855637995776918
0.8301063281946122
0.8301063281946122
0.7855637995776917
0.7469567927967043
0.715247102338302
0.6913843970625431
0.6761999346345244
0.6702837598345449
0.6738800232950467
0.6868393210164452
0.7086481637544334
0.7385229766843608
0.775532174825086
0.8187088134905636

SCALARS phi2 double 1
LOOKUP_TABLE default
1.4104733048988047
1.385857487887538
1.3654914901367048
1.3495677243241853
1.3382447741124794
1.3316400070368728
1.329823725627936
1.3328155064166851
1.340583159317827
1.3530444338410943
1.3700712656099931
1.39149606745832
1.4171193805229576
1.4171193805229576
1.39149606745832
1.3700712656099931
1.3530444338410943
1.340583159317827
1.3328155064166851
1.329823725627936
1.3316400070368728
1.3382447741124794
1.3495677243241853
1.365491490136705
1.385857487887538
1.4104733048988047
1.3353160341021728
1.3092879529851926
1.287711526986521
1.2708135227623913
1.2587823650407404
1.2517583933968093
1.2498260312304117
1.2530088352613336
1.2612680817910065
1.274505083178002
1.2925669189439932
1.3152548319052733
1.3423342749672935
1.3423342749672935
1.3152548319052733
1.2925669189439932
1.274505083178002
1.2612680817910065
1.2530088352613336
1.2498260312304117
1.2517583933968093
1.2587823650407404
1.2708135227623913
1.287711526986521
1.3092879529851926
1.3353160341021728
1.2607548841977785
1.2331540499590288
1.2102210309824217
1.192225220641619
1.1793926443876774
1.1718929313455047
1.1698286521706334
1.173228497924067
1.182045321145921
1.196159343124805
1.215386032109373
1.2394874908398095
1.2681858195273152
1.2681858195273152
1.2394874908398095
1.215386032109373
1.196159343124805
1.182045321145921
1.173228497924067
1.1698286521706334
1.1718929313455047
1.1793926443876774
1.192225220641619
1.210221030982422
1.2331540499590288
1.2607548841977785
1.1869022053761433
1.1575417392165839
1.1330793930393206
1.1138379342759683
1.1000913492678495
1.0920471645655965
1.0898316578892173
1.0934802583674574
1.1029347706646857
1.1180479154503906
1.1385943852596345
1.1642865656901509
1.1947925510097421
1.1947925510097421
1.1642865656901509
1.1385943852596345
1.1180479154503906
1.1029347706646857
1.0934802583674574
1.0898316578892173
1.0920471645655965
1.1000913492678495
1.1138379342759683
1.1330793930393206
1.1575417392165839
1.1869022053761433
1.1138989237022143
1.0825603193941447
1.0563630427218447
1.0356973066153812
1.0208990860178866
1.0122257538385189
1.0098351398301402
1.0137716915250494
1.0239624384904757
1.0402235857454698
1.0622763958796053
1.0897693215285356
1.1223026361220783
1.1223026361220783
1.0897693215285356
1.0622763958796053
1.0402235857454698
1.0239624384904757
1.0137716915250494
1.0098351398301402
1.0122257538385189
1.0208990860178866
1.0356973066153812
1.0563630427218447
1.0825603193941447
1.1138989237022143
1.0419235957224264
1.008350540350404
0.9801718446919157
0.957863705350899
0.9418433579584002
0.9324349542097596
0.9298392209053982
0.9341129533604375
0.9451629714168663
0.9627559791761157
0.9865419952243101
1.0160861879008904
1.0509030279453786
1.0509030279453786
1.0160861879008904
0.9865419952243101
0.9627559791761157
0.9451629714168663
0.9341129533604375
0.9298392209053982
0.9324349542097596
0.9418433579584002
0.957863705350899
0.9801718446919157
1.0083505403504038
1.0419235957224264
0.9712047911853345
0.935096133733399
0.9046384980891272
0.880418562461488
0.8629616897803484
0.8526833591259744
0.849844070304757
0.8545179791753699
0.8665835272123277
0.8857386987918956
0.9115366561139281
0.943432619926385
0.9808318618616363
0.9808318618616363
0.9434326199263849
0.9115366561139281
0.8857386987918956
0.8665835272123277
0.8545179791753699
0.849844070304757
0.8526833591259744
0.8629616897803484
0.880418562461488
0.9046384980891272
0.9350961337333988
0.9712047911853345
0.9020380887299316
0.8630404083363358
0.8299426361641812
0.8034742137896845
0.7843066014810489
0.772983103326686
0.7698499275380595
0.7750064153490321
0.7882899065280221
0.8093003210401927
0.8374562929117915
0.8720659811272089
0.9123952588331236
0.9123952588331236
0.8720659811272088
0.8374562929117915
0.8093003210401927
0.7882899065280221
0.7750064153490321
0.7698499275380595
0.772983103326686
0.7843066014810489
0.8034742137896845
0.8299426361641812
0.8630404083363358
0.9020380887299316
0.8348093678306124
0.7925103870105098
0.7563324311579858
0.727189644675411
0.7059538315109223
0.6933518912693273
0.6898571432032535
0.6956068652122084
0.7103766211187955
0.7336218213316434
0.7645698199875268
0.8023297592246971
0.845989997245453
0.845989997245453
0.802329759224697
0.7645698199875268
0.7336218213316434
0.7103766211187955
0.6956068652122084
0.6898571432032535
0.6933518912693273
0.7059538315109223
0.727189644675411
0.7563324311579858
0.7925103870105098
0.8348093678306124
0.7700263941683725
0.7239521259156209
0.6841583979748755
0.6517965529376091
0.6280165438291817
0.6138165949409903
0.6098662518345748
0.616362618941605
0.6329841316576234
0.6589650550918135
0.6932539049539915
0.7346883758681358
0.7821336474909901
0.7821336474909901
0.7346883758681357
0.6932539049539915
0.6589650550918135
0.6329841316576234
0.616362618941605
0.6098662518345748
0.6138165949409904
0.6280165438291817
0.6517965529376091
0.6841583979748755
0.7239521259156209
0.7700263941683725
0.7083605118964102
0.6579822548640242
0.6139272600379844
0.5776441062795916
0.5506711781284266
0.5344200401586289
0.5298781107244871
0.5373423909638556
0.5563298284548064
0.5857208472731319
0.62404722884743
0.6697768111348421
0.7215032984233399
0.7215032984233399
0.669776811134842
0.62404722884743
0.5857208472731319
0.5563298284548063
0.5373423909638556
0.5298781107244871
0.534420040158629
0.5506711781284266
0.5776441062795916
0.6139272600379844
0.6579822548640242
0.7083605118964102
0.6506985338175761
0.5954616820704289
0.546388733152456
0.5052788147327641
0.4742074583128656
0.4552348255805452
0.44989418680746546
0.458661980356942
0.4807669343109539
0.514492835740746
0.5577355205922925
0.6084693450225382
0.6649819371486402
0.6649819371486402
0.6084693450225382
0.5577355205922925
0.514492835740746
0.48076693431095385
0.458661980356942
0.44989418680746546
0.4552348255805452
0.4742074583128656
0.5052788147327641
0.5463887331524561
0.5954616820704288
0.6506985338175761
0.5981994224425013
0.5375951840486886
0.4826744397771075
0.43559229528992566
0.3991324098814164
0.37639435904320917
0.36991721563256486
0.3805322316481886
0.4069039348850683
0.44624751554126674
0.495482469950809
0.5519682155073384
0.6137059098885693
0.6137059098885693
0.5519682155073383
0.495482469950809
0.44624751554126674
0.40690393488506826
0.3805322316481886
0.36991721563256486
0.37639435904320917
0.3991324098814164
0.43559229528992566
0.48267443977710756
0.5375951840486886
0.5981994224425013
0.5523373209450371
0.4860478875692622
0.42450981368201995
0.37010081709467296
0.3264056490257878
0.29817223314344177
0.2899529505274058
0.30337888262262
0.33586422751336686
0.38258438575685744
0.43901804647047615
0.5018992707989864
0.569094817170527
0.569094817170527
0.5018992707989863
0.43901804647047615
0.38258438575685744
0.3358642275133668
0.30337888262262
0.2899529505274058
0.29817223314344177
0.3264056490257878
0.37010081709467296
0.42450981368202
0.4860478875692621
0.5523373209450371
0.5148888066436671
0.4430310554676059
0.3744897181639866
0.3114620071731757
0.25802057052518995
0.22122533244623177
0.210015905630376
0.2281944642614019
0.2698865436092534
0.32619745450133525
0.3908590695186078
0.4603659904106222
0.5328253729211422
0.5328253729211422
0.46036599041062215
0.3908590695186078
0.32619745450133525
0.26988654360925335
0.2281944642614019
0.210015905630376
0.22122533244623183
0.25802057052518995
0.3114620071731757
0.37448971816398663
0.44303105546760585
0.5148888066436671
0.48779550049702025
0.4112304502428532
0.3362685178674045
0.2642774091944716
0.19851594876065598
0.14756224047548425
0.1301562434766226
0.15781850530830374
0.2137117533491041
0.2814937768785476
0.35440764568946703
0.4298497554087381
0.5066920614404307
0.5066920614404307
0.429849755408738
0.35440764568946703
0.2814937768785476
0.21371175334910406
0.15781850530830374
0.1301562434766226