# vtk DataFile Version 4.1
Header:
ASCII

DATASET UNSTRUCTURED_GRID
POINTS 484 double
-1 -1 0
-0.9047619047619048 -1 0
-0.8095238095238095 -1 0
-0.7142857142857143 -1 0
-0.6190476190476191 -1 0
-0.5238095238095238 -1 0
-0.4285714285714286 -1 0
-0.33333333333333337 -1 0
-0.23809523809523814 -1 0
-0.1428571428571429 -1 0
-0.04761904761904767 -1 0
0.04761904761904745 -1 0
0.1428571428571428 -1 0
0.23809523809523814 -1 0
0.33333333333333326 -1 0
0.4285714285714284 -1 0
0.5238095238095237 -1 0
0.6190476190476191 -1 0
0.7142857142857142 -1 0
0.8095238095238093 -1 0
0.9047619047619047 -1 0
1 -1 0
-1 -0.9047619047619048 0
-0.9047619047619048 -0.9047619047619048 0
-0.8095238095238095 -0.9047619047619048 0
-0.7142857142857143 -0.9047619047619048 0
-0.6190476190476191 -0.9047619047619048 0
-0.5238095238095238 -0.9047619047619048 0
-0.4285714285714286 -0.9047619047619048 0
-0.33333333333333337 -0.9047619047619048 0
-0.23809523809523814 -0.9047619047619048 0
-0.1428571428571429 -0.9047619047619048 0
-0.04761904761904767 -0.9047619047619048 0
0.04761904761904745 -0.9047619047619048 0
0.1428571428571428 -0.9047619047619048 0
0.23809523809523814 -0.9047619047619048 0
0.33333333333333326 -0.9047619047619048 0
0.4285714285714284 -0.9047619047619048 0
0.5238095238095237 -0.9047619047619048 0
0.6190476190476191 -0.9047619047619048 0
0.7142857142857142 -0.9047619047619048 0
0.8095238095238093 -0.9047619047619048 0
0.9047619047619047 -0.9047619047619048 0
1 -0.9047619047619048 0
-1 -0.8095238095238095 0
-0.9047619047619048 -0.8095238095238095 0
-0.8095238095238095 -0.8095238095238095 0
-0.7142857142857143 -0.8095238095238095 0
-0.6190476190476191 -0.8095238095238095 0
-0.5238095238095238 -0.8095238095238095 0
-0.4285714285714286 -0.8095238095238095 0
-0.33333333333333337 -0.8095238095238095 0
-0.23809523809523814 -0.8095238095238095 0
-0.1428571428571429 -0.8095238095238095 0
-0.04761904761904767 -0.8095238095238095 0
0.04761904761904745 -0.8095238095238095 0
0.1428571428571428 -0.8095238095238095 0
0.23809523809523814 -0.8095238095238095 0
0.33333333333333326 -0.8095238095238095 0
0.4285714285714284 -0.8095238095238095 0
0.5238095238095237 -0.8095238095238095 0
0.6190476190476191 -0.8095238095238095 0
0.7142857142857142 -0.8095238095238095 0
0.8095238095238093 -0.8095238095238095 0
0.9047619047619047 -0.8095238095238095 0
1 -0.8095238095238095 0
-1 -0.7142857142857143 0
-0.9047619047619048 -0.7142857142857143 0
-0.8095238095238095 -0.7142857142857143 0
-0.7142857142857143 -0.7142857142857143 0
-0.6190476190476191 -0.7142857142857143 0
-0.5238095238095238 -0.7142857142857143 0
-0.4285714285714286 -0.7142857142857143 0
-0.33333333333333337 -0.7142857142857143 0
-0.23809523809523814 -0.7142857142857143 0
-0.1428571428571429 -0.7142857142857143 0
-0.04761904761904767 -0.7142857142857143 0
0.04761904761904745 -0.7142857142857143 0
0.1428571428571428 -0.7142857142857143 0
0.23809523809523814 -0.7142857142857143 0
0.33333333333333326 -0.7142857142857143 0
0.4285714285714284 -0.7142857142857143 0
0.5238095238095237 -0.7142857142857143 0
0.6190476190476191 -0.7142857142857143 0
0.7142857142857142 -0.7142857142857143 0
0.8095238095238093 -0.7142857142857143 0
0.9047619047619047 -0.7142857142857143 0
1 -0.7142857142857143 0
-1 -0.6190476190476191 0
-0.9047619047619048 -0.6190476190476191 0
-0.8095238095238095 -0.6190476190476191 0
-0.7142857142857143 -0.6190476190476191 0
-0.6190476190476191 -0.6190476190476191 0
-0.5238095238095238 -0.6190476190476191 0
-0.4285714285714286 -0.6190476190476191 0
-0.33333333333333337 -0.6190476190476191 0
-0.23809523809523814 -0.6190476190476191 0
-0.1428571428571429 -0.6190476190476191 0
-0.04761904761904767 -0.6190476190476191 0
0.04761904761904745 -0.6190476190476191 0
0.1428571428571428 -0.6190476190476191 0
0.23809523809523814 -0.6190476190476191 0
0.33333333333333326 -0.6190476190476191 0
0.4285714285714284 -0.6190476190476191 0
0.5238095238095237 -0.6190476190476191 0
0.6190476190476191 -0.6190476190476191 0
0.7142857142857142 -0.6190476190476191 0
0.8095238095238093 -0.6190476190476191 0
0.9047619047619047 -0.6190476190476191 0
1 -0.6190476190476191 0
-1 -0.5238095238095238 0
-0.9047619047619048 -0.5238095238095238 0
-0.8095238095238095 -0.5238095238095238 0
-0.7142857142857143 -0.5238095238095238 0
-0.6190476190476191 -0.5238095238095238 0
-0.5238095238095238 -0.5238095238095238 0
-0.4285714285714286 -0.5238095238095238 0
-0.33333333333333337 -0.5238095238095238 0
-0.23809523809523814 -0.5238095238095238 0
-0.1428571428571429 -0.5238095238095238 0
-0.04761904761904767 -0.5238095238095238 0
0.04761904761904745 -0.5238095238095238 0
0.1428571428571428 -0.5238095238095238 0
0.23809523809523814 -0.5238095238095238 0
0.33333333333333326 -0.5238095238095238 0
0.4285714285714284 -0.5238095238095238 0
0.5238095238095237 -0.5238095238095238 0
0.6190476190476191 -0.5238095238095238 0
0.7142857142857142 -0.5238095238095238 0
0.8095238095238093 -0.5238095238095238 0
0.9047619047619047 -0.5238095238095238 0
1 -0.5238095238095238 0
-1 -0.4285714285714286 0
-0.9047619047619048 -0.4285714285714286 0
-0.8095238095238095 -0.4285714285714286 0
-0.7142857142857143 -0.4285714285714286 0
-0.6190476190476191 -0.4285714285714286 0
-0.5238095238095238 -0.4285714285714286 0
-0.4285714285714286 -0.4285714285714286 0
-0.33333333333333337 -0.4285714285714286 0
-0.23809523809523814 -0.4285714285714286 0
-0.1428571428571429 -0.4285714285714286 0
-0.04761904761904767 -0.4285714285714286 0
0.04761904761904745 -0.4285714285714286 0
0.1428571428571428 -0.4285714285714286 0
0.23809523809523814 -0.4285714285714286 0
0.33333333333333326 -0.4285714285714286 0
0.4285714285714284 -0.4285714285714286 0
0.5238095238095237 -0.4285714285714286 0
0.6190476190476191 -0.4285714285714286 0
0.7142857142857142 -0.4285714285714286 0
0.8095238095238093 -0.4285714285714286 0
0.9047619047619047 -0.4285714285714286 0
1 -0.4285714285714286 0
-1 -0.33333333333333337 0
-0.9047619047619048 -0.33333333333333337 0
-0.8095238095238095 -0.33333333333333337 0
-0.7142857142857143 -0.33333333333333337 0
-0.6190476190476191 -0.33333333333333337 0
-0.5238095238095238 -0.33333333333333337 0
-0.4285714285714286 -0.33333333333333337 0
-0.33333333333333337 -0.33333333333333337 0
-0.23809523809523814 -0.33333333333333337 0
-0.1428571428571429 -0.33333333333333337 0
-0.04761904761904767 -0.33333333333333337 0
0.04761904761904745 -0.33333333333333337 0
0.1428571428571428 -0.33333333333333337 0
0.23809523809523814 -0.33333333333333337 0
0.33333333333333326 -0.33333333333333337 0
0.4285714285714284 -0.33333333333333337 0
0.5238095238095237 -0.33333333333333337 0
0.6190476190476191 -0.33333333333333337 0
0.7142857142857142 -0.33333333333333337 0
0.8095238095238093 -0.33333333333333337 0
0.9047619047619047 -0.33333333333333337 0
1 -0.33333333333333337 0
-1 -0.23809523809523814 0
-0.9047619047619048 -0.23809523809523814 0
-0.8095238095238095 -0.23809523809523814 0
-0.7142857142857143 -0.23809523809523814 0
-0.6190476190476191 -0.23809523809523814 0
-0.5238095238095238 -0.23809523809523814 0
-0.4285714285714286 -0.23809523809523814 0
-0.33333333333333337 -0.23809523809523814 0
-0.23809523809523814 -0.23809523809523814 0
-0.1428571428571429 -0.23809523809523814 0
-0.04761904761904767 -0.23809523809523814 0
0.04761904761904745 -0.23809523809523814 0
0.1428571428571428 -0.23809523809523814 0
0.23809523809523814 -0.23809523809523814 0
0.33333333333333326 -0.23809523809523814 0
0.4285714285714284 -0.23809523809523814 0
0.5238095238095237 -0.23809523809523814 0
0.6190476190476191 -0.23809523809523814 0
0.7142857142857142 -0.23809523809523814 0
0.8095238095238093 -0.23809523809523814 0
0.9047619047619047 -0.23809523809523814 0
1 -0.23809523809523814 0
-1 -0.1428571428571429 0
-0.9047619047619048 -0.1428571428571429 0
-0.8095238095238095 -0.1428571428571429 0
-0.7142857142857143 -0.1428571428571429 0
-0.6190476190476191 -0.1428571428571429 0
-0.5238095238095238 -0.1428571428571429 0
-0.4285714285714286 -0.1428571428571429 0
-0.33333333333333337 -0.1428571428571429 0
-0.23809523809523814 -0.1428571428571429 0
-0.1428571428571429 -0.1428571428571429 0
-0.04761904761904767 -0.1428571428571429 0
0.04761904761904745 -0.1428571428571429 0
0.1428571428571428 -0.1428571428571429 0
0.23809523809523814 -0.1428571428571429 0
0.33333333333333326 -0.1428571428571429 0
0.4285714285714284 -0.1428571428571429 0
0.5238095238095237 -0.1428571428571429 0
0.6190476190476191 -0.1428571428571429 0
0.7142857142857142 -0.1428571428571429 0
0.8095238095238093 -0.1428571428571429 0
0.9047619047619047 -0.1428571428571429 0
1 -0.1428571428571429 0
-1 -0.04761904761904767 0
-0.9047619047619048 -0.04761904761904767 0
-0.8095238095238095 -0.04761904761904767 0
-0.7142857142857143 -0.04761904761904767 0
-0.6190476190476191 -0.04761904761904767 0
-0.5238095238095238 -0.04761904761904767 0
-0.4285714285714286 -0.04761904761904767 0
-0.33333333333333337 -0.04761904761904767 0
-0.23809523809523814 -0.04761904761904767 0
-0.1428571428571429 -0.04761904761904767 0
-0.04761904761904767 -0.04761904761904767 0
0.04761904761904745 -0.04761904761904767 0
0.1428571428571428 -0.04761904761904767 0
0.23809523809523814 -0.04761904761904767 0
0.33333333333333326 -0.04761904761904767 0
0.4285714285714284 -0.04761904761904767 0
0.5238095238095237 -0.04761904761904767 0
0.6190476190476191 -0.04761904761904767 0
0.7142857142857142 -0.04761904761904767 0
0.8095238095238093 -0.04761904761904767 0
0.9047619047619047 -0.04761904761904767 0
1 -0.04761904761904767 0
-1 0.04761904761904745 0
-0.9047619047619048 0.04761904761904745 0
-0.8095238095238095 0.04761904761904745 0
-0.7142857142857143 0.04761904761904745 0
-0.6190476190476191 0.04761904761904745 0
-0.5238095238095238 0.04761904761904745 0
-0.4285714285714286 0.04761904761904745 0
-0.33333333333333337 0.04761904761904745 0
-0.23809523809523814 0.04761904761904745 0
-0.1428571428571429 0.04761904761904745 0
-0.04761904761904767 0.04761904761904745 0
[...]
POINT_DATA 484
SCALARS phi1 double 1
LOOKUP_TABLE default
1.2401434992741867
1.192524451655139
1.146966488405608
1.1076557381401737
1.0753654878753434
1.0497338980365511
1.0257898897723567
1.0088497300281039
1.0007253605088324
1
1
1
1
1.0007253605088324
1.0088497300281036
1.0257898897723567
1.0497338980365511
1.0753654878753434
1.1076557381401737
1.146966488405608
1.192524451655139
1.2401434992741867
1.158494944721695
1.1100458417709067
1.062636505706679
1.020081100682618
0.9849239311989448
0.9577409621994971
0.9331875493530621
0.9145336965285467
0.9055635546298907
0.9047619047619048
0.9047619047619048
0.9047619047619048
0.9047619047619048
0.9055635546298907
0.9145336965285467
0.933187549353062
0.9577409621994969
0.9849239311989448
1.020081100682618
1.062636505706679
1.1100458417709067
1.158494944721695
1.0790697543375423
1.0276065328100874
0.9799481842676269
0.934007633413149
0.8954775025384799
0.8657541483586644
0.8410985934955361
0.8204307258774008
0.8104196723620879
0.8095238095238095
0.8095238095238095
0.8095238095238095
0.8095238095238095
0.8104196723620879
0.8204307258774008
0.8410985934955361
0.8657541483586644
0.8954775025384799
0.934007633413149
0.9799481842676268
1.0276065328100874
1.0790697543375423
1.0024036722177372
0.9467823264211738
0.8974695743833946
0.8498915555218571
0.8073570179455208
0.7742581238021122
0.749105657658482
0.7266236022938085
0.7153008659285867
0.7142857142857143
0.7142857142857143
0.7142857142857143
0.7142857142857143
0.7153008659285867
0.7266236022938085
0.749105657658482
0.7742581238021122
0.8073570179455208
0.8498915555218571
0.8974695743833946
0.9467823264211738
1.0024036722177372
0.9291799066888431
0.8688837382194308
0.8152810507176154
0.7673719168801149
0.7210487784251325
0.6837847824542885
0.657112721821428
0.6332438175192111
0.6202186725777119
0.6190476190476191
0.6190476190476191
0.6190476190476191
0.6190476190476191
0.6202186725777119
0.6332438175192111
0.6571127218214279
0.6837847824542884
0.7210487784251325
0.7673719168801147
0.8152810507176151
0.8688837382194308
0.9291799066888431
0.8601927867747965
0.7947714873031212
0.735789343594389
0.6848933069958824
0.6372742593768349
0.5948009790910833
0.5651197859843738
0.5405128999490557
0.5251929782461805
0.5238095238095238
0.5238095238095238
0.5238095238095238
0.5238095238095238
0.5251929782461805
0.5405128999490557
0.5651197859843738
0.5948009790910833
0.6372742593768349
0.6848933069958824
0.7357893435943889
0.7947714873031212
0.8601927867747965
0.792849283804649
0.7255057808345018
0.6604765811170492
0.60340214193378
0.5547956494926026
0.5080899234471443
0.4732295930363706
0.44847741728041296
0.43026121897434355
0.4285714285714286
0.4285714285714286
0.4285714285714286
0.4285714285714286
0.43026121897434355
0.44847741728041296
0.47322959303637047
0.5080899234471443
0.5547956494926026
0.60340214193378
0.6604765811170491
0.7255057808345018
0.7928492838046493
0.7270129014371237
0.6581622778643543
0.590818774894207
0.5263820765531807
0.4723170396083704
0.42469799198932273
0.3826930922754467
0.35648448144335887
0.3355031419773055
0.33333333333333337
0.33333333333333337
0.33333333333333337
0.33333333333333337
0.3355031419773055
0.3564844814433588
0.3826930922754466
0.4246979919893227
0.4723170396083704
0.5263820765531806
0.5908187748942069
0.6581622778643542
0.7270129014371237
0.6679847254670735
0.5926684955345919
0.5234752719240595
0.4561317689539122
0.3926933230488304
0.34221938210509045
0.29513106850089366
0.2644915456063048
0.24112359811756504
0.23809523809523814
0.23809523809523814
0.23809523809523814
0.23809523809523814
0.24112359811756504
0.2644915456063047
0.29513106850089355
0.3422193821050904
0.3926933230488304
0.4561317689539121
0.5234752719240594
0.5926684955345918
0.6679847254670735
0.6176563118272155
0.5357726847924353
0.4585251481443195
0.38878826598376487
0.32144476301361746
0.2600368830688247
0.21212172460181064
0.17249860976925063
0.1478492828215241
0.1428571428571429
0.1428571428571429
0.1428571428571429
0.1428571428571429
0.1478492828215241
0.1724986097692506
0.2121217246018105
0.26003688306882466
0.32144476301361746
0.3887882659837647
0.45852514814431933
0.5357726847924352
0.6176563118272154
0.5700579379159826
0.4875586543239355
0.4050800444397033
0.32483204352499717
0.25410126004347006
0.18675775707332273
0.12964311471757836
0.08217221383313479
0.05585624106528981
0.04761904761904767
0.04761904761904767
0.04761904761904767
0.04761904761904767
0.05585624106528981
0.08217221383313475
0.12964311471757828
0.18675775707332265
0.25410126004347006
0.32483204352499706
0.4050800444397031
0.4875586543239354
0.5700579379159826
0.5296677580455087
0.44172853154248476
0.35746099682065574
0.2749823869364235
0.19252942803323134
0.11941425410317537
0.05207075113302803
0.00045454278570139945
0.036136694771764205
0.04761904761904745
0.04761904761904745
0.04761904761904745
0.04761904761904745
0.036136694771764205
0.00045454278570145496
0.05207075113302788
0.11941425410317531
0.19252942803323134
0.2749823869364234
0.3574609968206555
0.44172853154248465
0.5296677580455087
0.5025713887235437
0.41057845288648953
0.31869000253327606
0.22895558197760965
0.14488472943314357
0.062406119548911336
0.01527275183711945
0.0826162548072668
0.1281296306088184
0.1428571428571428
0.1428571428571428
0.1428571428571428
0.1428571428571428
0.1281296306088184
0.08261625480726688
0.015272751837119604
0.06240611954891124
0.14488472943314357
0.22895558197760954
0.31869000253327584
0.4105784528864894
0.5025713887235437
0.4790690037714562
0.38602222554366133
0.29393608418252865
0.20194314834547455
0.10995021250842046
0.01795727667136635
0.06769153795436858
0.1499597577774143
0.21303081017321374
0.23809523809523814
0.23809523809523814
0.23809523809523814
0.23809523809523814
0.21303081017321374
0.14995975777741438
0.06769153795436877
0.017957276671366238
0.10995021250842046
0.20194314834547447
0.2939360841825285
0.3860222255436612
0.4790690037714562
0.4702256620459808
0.37499096187199865
0.2797585732269049
0.18453207491214435
0.08933030626819774
0.006950549166775343
0.09868509203259447
0.19067802786964858
0.2802678053418806
0.33333333333333326
0.33333333333333326
0.33333333333333326
0.33333333333333326
0.2802678053418806
0.1906780278696487
0.09868509203259469
0.006950549166775438
0.08933030626819774
0.18453207491214424
0.2797585732269046
0.37499096187199854
0.4702256620459808
0.4804766650814036
0.3877678092968176
0.29666565648069176
0.209279093825799
0.1331373578644865
0.09896445106646173
0.1414318162925049
0.21989211971753012
0.3079654518563752
0.3993133324106635
0.4285714285714284
0.4285714285714284
0.3993133324106636
0.3079654518563752
0.2198921197175302
0.14143181629250504
0.09896445106646175
0.1331373578644865
0.20927909382579893
0.2966656564806916
0.3877678092968174
0.4804766650814036
0.5086689175663033
0.42219677395401833
0.3404361228563256
0.2677386433126062
0.213569188015181
0.19411389590962694
0.21883601319281118
0.2761137199130025
0.3503269352296918
0.43285069751569355
0.5197413594292619
0.5197413594292621
0.43285069751569366
0.3503269352296918
0.27611371991300254
0.21883601319281126
0.19411389590962694
0.213569188015181
0.2677386433126061
0.3404361228563254
0.4221967739540182
0.5086689175663033
0.5520605938459682
0.4735788714846439
0.40239729785988326
0.34309009414782493
0.3027187302578949
0.2893216828457589
0.30645722743902226
0.34966500812017837
0.41079896923789516
0.4831009810788122
0.5622792120298113
0.5622792120298116
0.4831009810788123
0.41079896923789516
0.3496650081201784
0.3064572274390224
0.2893216828457589
0.3027187302578949
0.3430900941478249
0.40239729785988315
0.4735788714846438
0.5520605938459682
0.6074029308673217
0.5370701710813198
0.47549028010421507
0.42647184414801953
0.39472275181144734
0.38454448027939653
0.39759709933330994
0.43177892381673016
0.48262119128314956
0.545485086017904
0.6167052240977977
0.6167052240977979
0.5454850860179041
0.48262119128314956
0.4317789238167302
0.39759709933331
0.38454448027939653
0.39472275181144734
0.4264718441480195
0.4754902801042149
0.5370701710813197
0.6074029308673217
0.6717487113080475
0.6088943909933219
0.5553368502012046
0.5139905101933526
0.4879693243590335
0.4797733506888033
0.4902973221587817
0.5184024013931108
0.5614545618243534
0.6163294490658144
0.6801715549384031
0.6801715549384033
0.6163294490658145
0.5614545618243534
0.5184024013931108
0.49029732215878175
0.4797733506888033
0.4879693243590335
0.5139905101933526
0.5553368502012045
0.6088943909933219
0.6717487113080475
0.7427616922209936
0.6864408056563215
0.6394119309790571
0.6038500185110491
0.581861376792087
0.5750052767741639
0.5838150943604007
0.6076097843658506
0.6447323671728821
0.6930444358572846
0.7503878626645666
0.7503878626645668
0.6930444358572846
0.6447323671728821
0.6076097843658506
0.5838150943604008
0.5750052767741639
0.581861376792087
0.603850018511049
0.6394119309790571
0.6864408056563215
0.7427616922209936
0.8187088134905636
0.767977974636143
0.7262484473887012
0.6951431756925525
0.6761300552841262
0.6702389560255845
0.6778121083745673
0.6984116550525541
0.7309370801488188
0.7738861543721236
0.8256337773434593
0.8256337773434594
0.7738861543721237
0.7309370801488188
0.6984116550525542
0.6778121083745673
0.6702389560255845
0.6761300552841262
0.6951431756925524
0.7262484473887011
0.7679779746361429
0.8187088134905636

SCALARS phi2 double 1
LOOKUP_TABLE default
1.4104733048988047
1.3816443073639693
1.3588920596866878
1.3425255518078443
1.3327800546990285
1.3298011432989878
1.333634161531642
1.3442208384258434
1.3614036277612567
1.384937039173227
1.4145041381471668
1.4145041381471668
1.384937039173227
1.3614036277612567
1.3442208384258436
1.333634161531642
1.3298011432989878
1.3327800546990285
1.3425255518078443
1.3588920596866878
1.3816443073639693
1.4104733048988047
1.3210648516651513
1.2902396639943194
1.265845578399056
1.2482596908215329
1.2377722216451852
1.2345640846842287
1.2386918403207143
1.250082821628707
1.2685413813330737
1.2937650485875773
1.3253676302476876
1.3253676302476876
1.2937650485875773
1.2685413813330737
1.2500828216287072
1.2386918403207143
1.2345640846842287
1.2377722216451852
1.2482596908215329
1.265845578399056
1.2902396639943194
1.3210648516651513
1.2325300525127743
1.1994316898374195
1.1731508924236962
1.154153474964202
1.1428027216972014
1.1393271993743856
1.1437986987749162
1.1561250144224298
1.1760591924714063
1.2032231667437632
1.237140793665153
1.237140793665153
1.2032231667437634
1.1760591924714063
1.1561250144224298
1.1437986987749162
1.1393271993743856
1.1428027216972014
1.154153474964202
1.1731508924236962
1.1994316898374195
1.2325300525127743
1.1450715732906729
1.109366916848291
1.0808985123524546
1.060249414705416
1.04788197729027
1.0440905347935665
1.0489680838473716
1.0623952308743192
1.0840543352654104
1.1134651169211027
1.1500330086400474
1.1500330086400474
1.1134651169211027
1.0840543352654104
1.0623952308743194
1.0489680838473716
1.0440905347935665
1.04788197729027
1.060249414705416
1.0808985123524546
1.109366916848291
1.1450715732906729
1.0589561252189688
1.0202421885894926
0.9892121921944476
0.9666064289893651
0.9530245566144459
0.9488541574056104
0.9542186374782363
0.9689596450652078
0.9926595433420897
1.024696898492681
1.064319072525751
1.064319072525751
1.0246968984926812
0.9926595433420897
0.9689596450652078
0.9542186374782363
0.9488541574056104
0.9530245566144459
0.9666064289893651
0.9892121921944474
1.0202421885894926
1.0589561252189688
0.9745398051841333
0.9323271314980779
0.8982652826062583
0.8733085052334764
0.8582514563108632
0.8536181633350285
0.8595772012218438
0.8759124102982272
0.90206026724254
0.9371998135563602
0.9803646489401947
0.9803646489401948
0.9371998135563603
0.90206026724254
0.8759124102982272
0.8595772012218438
0.8536181633350285
0.8582514563108632
0.8733085052334764
0.8982652826062582
0.9323271314980779
0.9745398051841333
0.8923049804898805
0.8459989517996767
0.8083074070268182
0.7804793985954057
0.7635940731687452
0.7583826969902364
0.7650838589194622
0.7833919177737074
0.8125226594110468
0.8513658654472787
0.8986630020259812
0.8986630020259813
0.8513658654472787
0.8125226594110468
0.7833919177737074
0.7650838589194622
0.7583826969902364
0.7635940731687452
0.7804793985954057
0.8083074070268181
0.8459989517996767
0.8923049804898805
0.8129139647557571
0.7617973236590098
0.7197095248378312
0.6883088169707872
0.6691015202989106
0.6631479857332473
0.6708011978723457
0.6916095955964214
0.724440479228127
0.7677530675527595
0.8198878747110648
0.819887874711065
0.7677530675527595
0.724440479228127
0.6916095955964214
0.6708011978723457
0.6631479857332473
0.6691015202989106
0.6883088169707872
0.7197095248378311
0.7617973236590098
0.8129139647557571
0.7372859957655262
0.6805120776232186
0.6330429097615233
0.5971017944846289
0.5748550860202533
0.567914409430772
0.5768325342107649
0.6009037844597794
0.6384164263247913
0.6871726844059733
0.74496822251373
0.7449682225137301
0.6871726844059735
0.6384164263247913
0.6009037844597794
0.576832534210765
0.567914409430772
0.5748550860202533
0.5971017944846289
0.6330429097615233
0.6805120776232185
0.7372859957655262
0.6667028982824089
0.6033231330035919
0.5492225784010856
0.50737822972903
0.4809994646042271
0.47268265407702753
0.4833610323042329
0.511847118976248
0.5554076416718788
0.6108260089582891
0.6751886903536423
0.6751886903536424
0.6108260089582892
0.5554076416718788
0.511847118976248
0.4833610323042329
0.4726826540770276
0.4809994646042271
0.50737822972903
0.5492225784010855
0.6033231330035919
0.6667028982824089
0.6029390177899632
0.5320164540807278
0.4697745685122791
0.4200897197008346
0.387818500776993
0.3774540979518758
0.3907436399297819
0.425476412741819
0.47699093599656534
0.5405100533896416
0.6123091312211733
0.6123091312211735
0.5405100533896418
0.47699093599656534
0.42547641274181913
0.3907436399297819
0.37745409795187584
0.387818500776993
0.42008971970083453
0.46977456851227894
0.5320164540807277
0.6029390177899632
0.5483782940070183
0.4692811540826604
0.39733039071460474
0.33713301049118316
0.2959501372012471
0.28223197945163253
0.2997730580123862
0.34382186080028304
0.40583697119336226
0.47888872609385547
0.5586642697912141
0.5586642697912143
0.4788887260938555
0.40583697119336226
0.3438218608002831
0.2997730580123863
0.28223197945163253
0.2959501372012471
0.3371330104911831
0.3973303907146046
0.46928115408266036
0.5483782940070183
0.5060065583287743
0.41898530440916065
0.33644512646062175
0.2626452940688858
0.20714817750373832
0.1870261317540146
0.21257415187124887
0.27117771976667354
0.34644989669660065
0.4297188565951918
0.5171360073278921
0.5171360073278923
0.4297188565951919
0.34644989669660065
0.2711777197666736
0.21257415187124898
0.1870261317540146
0.20714817750373832
0.26264529406888576
0.3364451264606216
0.4189853044091605
0.5060065583287743
0.4790690037714562
0.38602222554366133
0.29438036011586793
0.20602675505714269
0.1279642166621772
0.09188714415909538
0.1365732160660542
0.21679905212130626
0.3057646222569407
0.39764653778993647
0.49080966104782214
0.49080966104782237
0.3976465377899365
0.3057646222569407
0.21679905212130635
0.13657321606605438
0.0918871441590954
0.1279642166621772
0.2060267550571426
0.2943803601158677
0.3860222255436612
0.4790690037714562
0.4702256620459808
0.37499096187199865
0.2797585732269049
0.18453207491214435
0.08933030626819774
0.006950549166775343
0.10127836007079948
0.19648636561528196
0.29171401594015844
0.3869468075696306
0.482181694229347
0.4821816942293472
0.38694680756963074
0.29171401594015844
0.19648636561528207
0.1012783600707997
0.006950549166775438
0.08933030626819774
0.18453207491214424
0.2797585732269046
0.37499096187199854
0.4702256620459808
0.4804766650814036
0.3877678092968176
0.29666565648069176
0.209279093825799
0.1331373578644865
0.09896445106646173
0.1414318162925049
0.21989211971753012
0.3079654518563752
0.39934131307628956
0.49218374484642397
0.4921837448464242
0.3993413130762896
0.3079654518563752
0.2198921197175302
0.14143181629250504
0.09896445106646175
0.1331373578644865
0.20927909382579893
0.2966656564806916
0.3877678092968174
0.4804766650814036
0.5086689175663033
0.42219677395401833
0.3404361228563256
0.2677386433126062
0.213569188015181
0.19411389590962694
0.21883601319281118
0.2761137199130025
0.3503269352296918
0.43285069751569355
0.5197413594292619
0.5197413594292621
0.43285069751569366
0.3503269352296918
0.27611371991300254
0.21883601319281126
0.19411389590962694
0.213569188015181
0.2677386433126061
0.3404361228563254
0.4221967739540182
0.5086689175663033
0.5520605938459682
0.4735788714846439
0.40239729785988326
0.34309009414782493
0.3027187302578949
0.2893216828457589
0.30645722743902226
0.34966500812017837
0.41079896923789516
0.4831009810788122
0.5622792120298113
0.5622792120298116
0.4831009810788123
0.41079896923789516
0.3496650081201784
0.3064572274390224
0.2893216828457589
0.3027187302578949
0.3430900941478249
0.40239729785988315
0.4735788714846438
0.5520605938459682
0.6074029308673217
0.5370701710813198
0.47549028010421507
0.42647184414801953
0.39472275181144734
0.38454448027939653
0.39759709933330994
0.43177892381673016
0.48262119128314956
0.545485086017904
0.6167052240977977
0.6167052240977979
0.5454850860179041
0.48262119128314956
0.4317789238167302
0.39759709933331
0.38454448027939653
0.39472275181144734
0.4264718441480195
0.4754902801042149
0.5370701710813197
0.6074029308673217
0.6717487113080475
0.6088943909933219
0.5553368502012046
0.5139905101933526
0.4879693243590335
0.4797733506888033
0.4902973221587817
0.5184024013931108
0.5614545618243534
0.6163294490658144
0.6801715549384031
0.6801715549384033
0.6163294490658145
0.5614545618243534
0.5184024013931108
0.49029732215878175
0.4797733506888033
0.4879693243590335
0.5139905101933526
0.5553368502012045
0.6088943909933219
0.6717487113080475
0.7427616922209936
0.6864408056563215
0.6394119309790571
0.6038500185110491
0.581861376792087
0.5750052767741639
0.5838150943604007
0.6076097843658506
0.6447323671728821
0.6930444358572846
0.7503878626645666
0.7503878626645668
0.6930444358572846
0.6447323671728821
0.6076097843658506
0.5838150943604008
0.5750052767741639
0.581861376792087
0.603850018511049
0.6394119309790571
0.6864408056563215
0.7427616922209936
0.8187088134905636
0.767977974636143
0.7262484473887012
0.6951431756925525
0.6761300552841262
0.6702389560255845
0.6778121083745673
0.6984116550525541
0.7309370801488188
0.7738861543721236
0.8256337773434593
0.8256337773434594
0.7738861543721237
0.7309370801488188
0.6984116550525542
0.6778121083745673
0.6702389560255845
0.6761300552841262
0.6951431756925524
0.7262484473887011
0.7679779746361429
0.8187088134905636

SCALARS phi3 double 1
LOOKUP_TABLE default
-1.2401434992741867
-1.192524451655139
-1.146966488405608
-1.1076557381401737
-1.0753654878753434
-1.0497338980365511
-1.0257898897723567
-1.0088497300281039
-1.0007253605088324
-1
-1
-1
-1
-1.0007253605088324
-1.0088497300281036
-1.0257898897723567
-1.0497338980365511
-1.0753654878753434
-1.1076557381401737
-1.146966488405608
-1.192524451655139
-1.2401434992741867
-1.158494944721695
-1.1100458417709067
-1.062636505706679
-1.020081100682618
-0.9849239311989448
-0.9577409621994971
-0.9331875493530621
-0.9145336965285467
-0.9055635546298907
-0.9047619047619048
-0.9047619047619048
-0.9047619047619048
-0.9047619047619048
-0.9055635546298907
-0.9145336965285467
-0.933187549353062
-0.9577409621994969
-0.9849239311989448
-1.020081100682618
-1.062636505706679
-1.1100458417709067
-1.158494944721695
-1.0790697543375423
-1.0276065328100874
-0.9799481842676269
-0.934007633413149
-0.8954775025384799
-0.8657541483586644
-0.8410985934955361
-0.8204307258774008
-0.8104196723620879
-0.8095238095238095
-0.8095238095238095
-0.8095238095238095
-0.8095238095238095
-0.8104196723620879
-0.8204307258774008
-0.8410985934955361
-0.8657541483586644
-0.8954775025384799
-0.934007633413149
-0.9799481842676268
-1.0276065328100874
-1.0790697543375423
-1.0024036722177372
-0.9467823264211738
-0.8974695743833946
-0.8498915555218571
-0.8073570179455208
-0.7742581238021122
-0.749105657658482