# vtk DataFile Version 4.1
Header:
ASCII

DATASET UNSTRUCTURED_GRID
POINTS 484 double
-1 -1 0
-0.9047619047619048 -1 0
-0.8095238095238095 -1 0
-0.7142857142857143 -1 0
-0.6190476190476191 -1 0
-0.5238095238095238 -1 0
-0.4285714285714286 -1 0
-0.33333333333333337 -1 0
-0.23809523809523814 -1 0
-0.1428571428571429 -1 0
-0.04761904761904767 -1 0
0.04761904761904745 -1 0
0.1428571428571428 -1 0
0.23809523809523814 -1 0
0.33333333333333326 -1 0
0.4285714285714284 -1 0
0.5238095238095237 -1 0
0.6190476190476191 -1 0
0.7142857142857142 -1 0
0.8095238095238093 -1 0
0.9047619047619047 -1 0
1 -1 0
-1 -0.9047619047619048 0
-0.9047619047619048 -0.9047619047619048 0
-0.8095238095238095 -0.9047619047619048 0
-0.7142857142857143 -0.9047619047619048 0
-0.6190476190476191 -0.9047619047619048 0
-0.5238095238095238 -0.9047619047619048 0
-0.4285714285714286 -0.9047619047619048 0
-0.33333333333333337 -0.9047619047619048 0
-0.23809523809523814 -0.9047619047619048 0
-0.1428571428571429 -0.9047619047619048 0
-0.04761904761904767 -0.9047619047619048 0
0.04761904761904745 -0.9047619047619048 0
0.1428571428571428 -0.9047619047619048 0
0.23809523809523814 -0.9047619047619048 0
0.33333333333333326 -0.9047619047619048 0
0.4285714285714284 -0.9047619047619048 0
0.5238095238095237 -0.9047619047619048 0
0.6190476190476191 -0.9047619047619048 0
0.7142857142857142 -0.9047619047619048 0
0.8095238095238093 -0.9047619047619048 0
0.9047619047619047 -0.9047619047619048 0
1 -0.9047619047619048 0
-1 -0.8095238095238095 0
-0.9047619047619048 -0.8095238095238095 0
-0.8095238095238095 -0.8095238095238095 0
-0.7142857142857143 -0.8095238095238095 0
-0.6190476190476191 -0.8095238095238095 0
-0.5238095238095238 -0.8095238095238095 0
-0.4285714285714286 -0.8095238095238095 0
-0.33333333333333337 -0.8095238095238095 0
-0.23809523809523814 -0.8095238095238095 0
-0.1428571428571429 -0.8095238095238095 0
-0.04761904761904767 -0.8095238095238095 0
0.04761904761904745 -0.8095238095238095 0
0.1428571428571428 -0.8095238095238095 0
0.23809523809523814 -0.8095238095238095 0
0.33333333333333326 -0.8095238095238095 0
0.4285714285714284 -0.8095238095238095 0
0.5238095238095237 -0.8095238095238095 0
0.6190476190476191 -0.8095238095238095 0
0.7142857142857142 -0.8095238095238095 0
0.8095238095238093 -0.8095238095238095 0
0.9047619047619047 -0.8095238095238095 0
1 -0.8095238095238095 0
-1 -0.7142857142857143 0
-0.9047619047619048 -0.7142857142857143 0
-0.8095238095238095 -0.7142857142857143 0
-0.7142857142857143 -0.7142857142857143 0
-0.6190476190476191 -0.7142857142857143 0
-0.5238095238095238 -0.7142857142857143 0
-0.4285714285714286 -0.7142857142857143 0
-0.33333333333333337 -0.7142857142857143 0
-0.23809523809523814 -0.7142857142857143 0
-0.1428571428571429 -0.7142857142857143 0
-0.04761904761904767 -0.7142857142857143 0
0.04761904761904745 -0.7142857142857143 0
0.1428571428571428 -0.7142857142857143 0
0.23809523809523814 -0.7142857142857143 0
0.33333333333333326 -0.7142857142857143 0
0.4285714285714284 -0.7142857142857143 0
0.5238095238095237 -0.7142857142857143 0
0.6190476190476191 -0.7142857142857143 0
0.7142857142857142 -0.7142857142857143 0
0.8095238095238093 -0.7142857142857143 0
0.9047619047619047 -0.7142857142857143 0
1 -0.7142857142857143 0
-1 -0.6190476190476191 0
-0.9047619047619048 -0.6190476190476191 0
-0.8095238095238095 -0.6190476190476191 0
-0.7142857142857143 -0.6190476190476191 0
-0.6190476190476191 -0.6190476190476191 0
-0.5238095238095238 -0.6190476190476191 0
-0.4285714285714286 -0.6190476190476191 0
-0.33333333333333337 -0.6190476190476191 0
-0.23809523809523814 -0.6190476190476191 0
-0.1428571428571429 -0.6190476190476191 0
-0.04761904761904767 -0.6190476190476191 0
0.04761904761904745 -0.6190476190476191 0
0.1428571428571428 -0.6190476190476191 0
0.23809523809523814 -0.6190476190476191 0
0.33333333333333326 -0.6190476190476191 0
0.4285714285714284 -0.6190476190476191 0
0.5238095238095237 -0.6190476190476191 0
0.6190476190476191 -0.6190476190476191 0
0.7142857142857142 -0.6190476190476191 0
0.8095238095238093 -0.6190476190476191 0
0.9047619047619047 -0.6190476190476191 0
1 -0.6190476190476191 0
-1 -0.5238095238095238 0
-0.9047619047619048 -0.5238095238095238 0
-0.8095238095238095 -0.5238095238095238 0
-0.7142857142857143 -0.5238095238095238 0
-0.6190476190476191 -0.5238095238095238 0
-0.5238095238095238 -0.5238095238095238 0
-0.4285714285714286 -0.5238095238095238 0
-0.33333333333333337 -0.5238095238095238 0
-0.23809523809523814 -0.5238095238095238 0
-0.1428571428571429 -0.5238095238095238 0
-0.04761904761904767 -0.5238095238095238 0
0.04761904761904745 -0.5238095238095238 0
0.1428571428571428 -0.5238095238095238 0
0.23809523809523814 -0.5238095238095238 0
0.33333333333333326 -0.5238095238095238 0
0.4285714285714284 -0.5238095238095238 0
0.5238095238095237 -0.5238095238095238 0
0.6190476190476191 -0.5238095238095238 0
0.7142857142857142 -0.5238095238095238 0
0.8095238095238093 -0.5238095238095238 0
0.9047619047619047 -0.5238095238095238 0
1 -0.5238095238095238 0
-1 -0.4285714285714286 0
-0.9047619047619048 -0.4285714285714286 0
-0.8095238095238095 -0.4285714285714286 0
-0.7142857142857143 -0.4285714285714286 0
-0.6190476190476191 -0.4285714285714286 0
-0.5238095238095238 -0.4285714285714286 0
-0.4285714285714286 -0.4285714285714286 0
-0.33333333333333337 -0.4285714285714286 0
-0.23809523809523814 -0.4285714285714286 0
-0.1428571428571429 -0.4285714285714286 0
-0.04761904761904767 -0.4285714285714286 0
0.04761904761904745 -0.4285714285714286 0
0.1428571428571428 -0.4285714285714286 0
0.23809523809523814 -0.4285714285714286 0
0.33333333333333326 -0.4285714285714286 0
0.4285714285714284 -0.4285714285714286 0
0.5238095238095237 -0.4285714285714286 0
0.6190476190476191 -0.4285714285714286 0
0.7142857142857142 -0.4285714285714286 0
0.8095238095238093 -0.4285714285714286 0
0.9047619047619047 -0.4285714285714286 0
1 -0.4285714285714286 0
-1 -0.33333333333333337 0
-0.9047619047619048 -0.33333333333333337 0
-0.8095238095238095 -0.33333333333333337 0
-0.7142857142857143 -0.33333333333333337 0
-0.6190476190476191 -0.33333333333333337 0
-0.5238095238095238 -0.33333333333333337 0
-0.4285714285714286 -0.33333333333333337 0
-0.33333333333333337 -0.33333333333333337 0
-0.23809523809523814 -0.33333333333333337 0
-0.1428571428571429 -0.33333333333333337 0
-0.04761904761904767 -0.33333333333333337 0
0.04761904761904745 -0.33333333333333337 0
0.1428571428571428 -0.33333333333333337 0
0.23809523809523814 -0.33333333333333337 0
0.33333333333333326 -0.33333333333333337 0
0.4285714285714284 -0.33333333333333337 0
0.5238095238095237 -0.33333333333333337 0
0.6190476190476191 -0.33333333333333337 0
0.7142857142857142 -0.33333333333333337 0
0.8095238095238093 -0.33333333333333337 0
0.9047619047619047 -0.33333333333333337 0
1 -0.33333333333333337 0
-1 -0.23809523809523814 0
-0.9047619047619048 -0.23809523809523814 0
-0.8095238095238095 -0.23809523809523814 0
-0.7142857142857143 -0.23809523809523814 0
-0.6190476190476191 -0.23809523809523814 0
-0.5238095238095238 -0.23809523809523814 0
-0.4285714285714286 -0.23809523809523814 0
-0.33333333333333337 -0.23809523809523814 0
-0.23809523809523814 -0.23809523809523814 0
-0.1428571428571429 -0.23809523809523814 0
-0.04761904761904767 -0.23809523809523814 0
0.04761904761904745 -0.23809523809523814 0
0.1428571428571428 -0.23809523809523814 0
0.23809523809523814 -0.23809523809523814 0
0.33333333333333326 -0.23809523809523814 0
0.4285714285714284 -0.23809523809523814 0
0.5238095238095237 -0.23809523809523814 0
0.6190476190476191 -0.23809523809523814 0
0.7142857142857142 -0.23809523809523814 0
0.8095238095238093 -0.23809523809523814 0
0.9047619047619047 -0.23809523809523814 0
1 -0.23809523809523814 0
-1 -0.1428571428571429 0
-0.9047619047619048 -0.1428571428571429 0
-0.8095238095238095 -0.1428571428571429 0
-0.7142857142857143 -0.1428571428571429 0
-0.6190476190476191 -0.1428571428571429 0
-0.5238095238095238 -0.1428571428571429 0
-0.4285714285714286 -0.1428571428571429 0
-0.33333333333333337 -0.1428571428571429 0
-0.23809523809523814 -0.1428571428571429 0
-0.1428571428571429 -0.1428571428571429 0
-0.04761904761904767 -0.1428571428571429 0
0.04761904761904745 -0.1428571428571429 0
0.1428571428571428 -0.1428571428571429 0
0.23809523809523814 -0.1428571428571429 0
0.33333333333333326 -0.1428571428571429 0
0.4285714285714284 -0.1428571428571429 0
0.5238095238095237 -0.1428571428571429 0
0.6190476190476191 -0.1428571428571429 0
0.7142857142857142 -0.1428571428571429 0
0.8095238095238093 -0.1428571428571429 0
0.9047619047619047 -0.1428571428571429 0
1 -0.1428571428571429 0
-1 -0.04761904761904767 0
-0.9047619047619048 -0.04761904761904767 0
-0.8095238095238095 -0.04761904761904767 0
-0.7142857142857143 -0.04761904761904767 0
-0.6190476190476191 -0.04761904761904767 0
-0.5238095238095238 -0.04761904761904767 0
-0.4285714285714286 -0.04761904761904767 0
-0.33333333333333337 -0.04761904761904767 0
-0.23809523809523814 -0.04761904761904767 0
-0.1428571428571429 -0.04761904761904767 0
-0.04761904761904767 -0.04761904761904767 0
0.04761904761904745 -0.04761904761904767 0
0.1428571428571428 -0.04761904761904767 0
0.23809523809523814 -0.04761904761904767 0
0.33333333333333326 -0.04761904761904767 0
0.4285714285714284 -0.04761904761904767 0
0.5238095238095237 -0.04761904761904767 0
0.6190476190476191 -0.04761904761904767 0
0.7142857142857142 -0.04761904761904767 0
0.8095238095238093 -0.04761904761904767 0
0.9047619047619047 -0.04761904761904767 0
1 -0.04761904761904767 0
-1 0.04761904761904745 0
-0.9047619047619048 0.04761904761904745 0
-0.8095238095238095 0.04761904761904745 0
-0.7142857142857143 0.04761904761904745 0
-0.6190476190476191 0.04761904761904745 0
-0.5238095238095238 0.04761904761904745 0
-0.4285714285714286 0.04761904761904745 0
-0.33333333333333337 0.04761904761904745 0
-0.23809523809523814 0.04761904761904745 0
-0.1428571428571429 0.04761904761904745 0
-0.04761904761904767 0.04761904761904745 0
[...]
POINT_DATA 484
SCALARS phi1 double 1
LOOKUP_TABLE default
1.2401434992741867
1.192524451655139
1.146966488405608
1.1076557381401737
1.0753654878753434
1.0497338980365511
1.0257898897723567
1.0088497300281039
1.0007253605088324
1
1
1
1
1.0007253605088324
1.0088497300281036
1.0257898897723567
1.0497338980365511
1.0753654878753434
1.1076557381401737
1.146966488405608
1.192524451655139
1.2401434992741867
1.158494944721695
1.1100458417709067
1.062636505706679
1.020081100682618
0.9849239311989448
0.9577409621994971
0.9331875493530621
0.9145336965285467
0.9055635546298907
0.9047619047619048
0.9047619047619048
0.9047619047619048
0.9047619047619048
0.9055635546298907
0.9145336965285467
0.933187549353062
0.9577409621994969
0.9849239311989448
1.020081100682618
1.062636505706679
1.1100458417709067
1.158494944721695
1.0790697543375423
1.0276065328100874
0.9799481842676269
0.934007633413149
0.8954775025384799
0.8657541483586644
0.8410985934955361
0.8204307258774008
0.8104196723620879
0.8095238095238095
0.8095238095238095
0.8095238095238095
0.8095238095238095
0.8104196723620879
0.8204307258774008
0.8410985934955361
0.8657541483586644
0.8954775025384799
0.934007633413149
0.9799481842676268
1.0276065328100874
1.0790697543375423
1.0024036722177372
0.9467823264211738
0.8974695743833946
0.8498915555218571
0.8073570179455208
0.7742581238021122
0.749105657658482
0.7266236022938085
0.7153008659285867
0.7142857142857143
0.7142857142857143
0.7142857142857143
0.7142857142857143
0.7153008659285867
0.7266236022938085
0.749105657658482
0.7742581238021122
0.8073570179455208
0.8498915555218571
0.8974695743833946
0.9467823264211738
1.0024036722177372
0.9291799066888431
0.8688837382194308
0.8152810507176154
0.7673719168801149
0.7210487784251325
0.6837847824542885
0.657112721821428
0.6332438175192111
0.6202186725777119
0.6190476190476191
0.6190476190476191
0.6190476190476191
0.6190476190476191
0.6202186725777119
0.6332438175192111
0.6571127218214279
0.6837847824542884
0.7210487784251325
0.7673719168801147
0.8152810507176151
0.8688837382194308
0.9291799066888431
0.8601927867747965
0.7947714873031212
0.735789343594389
0.6848933069958824
0.6372742593768349
0.5948009790910833
0.5651197859843738
0.5405128999490557
0.5251929782461805
0.5238095238095238
0.5238095238095238
0.5238095238095238
0.5238095238095238
0.5251929782461805
0.5405128999490557
0.5651197859843738
0.5948009790910833
0.6372742593768349
0.6848933069958824
0.7357893435943889
0.7947714873031212
0.8601927867747965
0.792849283804649
0.7255057808345018
0.6604765811170492
0.60340214193378
0.5547956494926026
0.5080899234471443
0.4732295930363706
0.44847741728041296
0.43026121897434355
0.4285714285714286
0.4285714285714286
0.4285714285714286
0.4285714285714286
0.43026121897434355
0.44847741728041296
0.47322959303637047
0.5080899234471443
0.5547956494926026
0.60340214193378
0.6604765811170491
0.7255057808345018
0.7928492838046493
0.7270129014371237
0.6581622778643543
0.590818774894207
0.5263820765531807
0.4723170396083704
0.42469799198932273
0.3826930922754467
0.35648448144335887
0.3355031419773055
0.33333333333333337
0.33333333333333337
0.33333333333333337
0.33333333333333337
0.3355031419773055
0.3564844814433588
0.3826930922754466
0.4246979919893227
0.4723170396083704
0.5263820765531806
0.5908187748942069
0.6581622778643542
0.7270129014371237
0.6679847254670735
0.5926684955345919
0.5234752719240595
0.4561317689539122
0.3926933230488304
0.34221938210509045
0.29513106850089366
0.2644915456063048
0.24112359811756504
0.23809523809523814
0.23809523809523814
0.23809523809523814
0.23809523809523814
0.24112359811756504
0.2644915456063047
0.29513106850089355
0.3422193821050904
0.3926933230488304
0.4561317689539121
0.5234752719240594
0.5926684955345918
0.6679847254670735
0.6180614998750362
0.5357726847924353
0.4585251481443195
0.38878826598376487
0.32144476301361746
0.2600368830688247
0.21212172460181064
0.17249860976925063
0.1478492828215241
0.1428571428571429
0.1428571428571429
0.1428571428571429
0.1428571428571429
0.1478492828215241
0.1724986097692506
0.2121217246018105
0.26003688306882466
0.32144476301361746
0.3887882659837647
0.45852514814431933
0.5357726847924352
0.6180614998750362
0.5796007516967158
0.49090669531929676
0.4051941821156725
0.32483204352499717
0.25410126004347006
0.18675775707332273
0.12964311471757836
0.08217221383313479
0.05585624106528981
0.04761904761904767
0.04761904761904767
0.04761904761904767
0.04761904761904767
0.05585624106528981
0.08217221383313475
0.12964311471757828
0.18675775707332265
0.25410126004347006
0.32483204352499706
0.4051941821156723
0.4909066953192967
0.5796007516967158
0.5549906617918698
0.46159179674046696
0.36913402515775817
0.27855602633833887
0.19252942803323134
0.11941425410317537
0.05207075113302803
0.00045454278570139945
0.036136694771764205
0.04761904761904745
0.04761904761904745
0.04761904761904745
0.04761904761904745
0.036136694771764205
0.00045454278570145496
0.05207075113302788
0.11941425410317531
0.19252942803323134
0.27855602633833876
0.36913402515775795
0.46159179674046685
0.5549906617918698
0.5461069744602409
0.45087157783124143
0.35563762653452335
0.2604067063025566
0.1651840595721749
0.07000345673824047
0.01527275183711945
0.0826162548072668
0.1281296306088184
0.1428571428571428
0.1428571428571428
0.1428571428571428
0.1428571428571428
0.1281296306088184
0.08261625480726688
0.015272751837119604
0.07000345673824038
0.1651840595721749
0.26040670630255647
0.3556376265345231
0.4508715778312413
0.5461069744602409
0.553707151842217
0.460047782456491
0.3672014486003708
0.27598991853770244
0.1887976588410076
0.11514888797728083
0.09494507038348142
0.1499597577774143
0.21303081017321374
0.23809523809523814
0.23809523809523814
0.23809523809523814
0.23809523809523814
0.21303081017321374
0.14995975777741438
0.09494507038348148
0.11514888797728076
0.1887976588410076
0.2759899185377023
0.3672014486003706
0.46004778245649086
0.553707151842217
0.5771403486306278
0.48799931778579103
0.4016668717612561
0.3204212963439076
0.24928683880242877
0.19939568304922498
0.18845142187414468
0.22228321565801526
0.284646763717709
0.33333333333333326
0.33333333333333326
0.33333333333333326
0.33333333333333326
0.284646763717709
0.22228321565801532
0.1884514218741447
0.19939568304922495
0.24928683880242877
0.3204212963439075
0.40166687176125593
0.4879993177857909
0.5771403486306278
0.6145981968757361
0.5317737260760642
0.45384605039142617
0.38380954747912904
0.3267780433039094
0.29051437142435926
0.28311464107638523
0.30667538138672185
0.35508628342240023
0.4193337696580036
0.4285714285714284
0.4285714285714284
0.41933376965800373
0.35508628342240023
0.3066753813867219
0.28311464107638523
0.2905143714243592
0.3267780433039094
0.38380954747912893
0.453846050391426
0.5317737260760642
0.6145981968757361
0.6637103997659604
0.5878467886272798
0.5184175813092006
0.4583561059817121
0.4117820306182828
0.38363935037828856
0.3780667284308355
0.3960181065346331
0.43458810364449446
0.48892114755297783
0.5238095238095237
0.5238095238095237
0.4889211475529779
0.43458810364449446
0.39601810653463315
0.3780667284308355
0.38363935037828856
0.4117820306182828
0.45835610598171206
0.5184175813092005
0.5878467886272797
0.6637103997659604
0.7221029258223765
0.6530581808867809
0.5913357162680328
0.5394547808801626
0.5004853459032164
0.477598463023512
0.47313379912044
0.4875976634757613
0.5194111671432022
0.5656545140350835
0.6190476190476191
0.6190476190476191
0.5656545140350836
0.5194111671432022
0.4875976634757613
0.47313379912044
0.477598463023512
0.5004853459032164
0.5394547808801625
0.5913357162680326
0.6530581808867808
0.7221029258223765
0.7877146474289678
0.7249460103456381
0.6698803323184924
0.6245583967151277
0.5912252631246137
0.5719807882921659
0.5682581474673701
0.5803561076786633
0.607329968671043
0.6473227630333828
0.6981005785741313
0.6981005785741314
0.6473227630333828
0.607329968671043
0.5803561076786634
0.5682581474673702
0.5719807882921659
0.5912252631246137
0.6245583967151276
0.6698803323184924
0.7249460103456381
0.7877146474289678
0.8588927090365889
0.8017163075415926
0.7522911534035219
0.7122327644593713
0.6831907724924541
0.6666065871542187
0.6634151355110274
0.6738067464651832
0.6971743043945593
0.7322766413065765
0.777526036649323
0.7775260366493232
0.7322766413065765
0.6971743043945593
0.6738067464651833
0.6634151355110275
0.6666065871542187
0.6831907724924541
0.7122327644593712
0.7522911534035218
0.8017163075415925
0.8588927090365889
0.9343658785868839
0.8820952030304633
0.8374275424897548
0.8016348421823163
0.7759462230400151
0.761385087500815
0.7585924804902456
0.7676968418674291
0.7882860649150576
0.8194949596150481
0.8601683829918612
0.8601683829918613
0.8194949596150481
0.7882860649150576
0.7676968418674291
0.7585924804902456
0.761385087500815
0.7759462230400151
0.8016348421823163
0.8374275424897548
0.8820952030304632
0.9343658785868839
1.0131747598849021
0.9651815612669691
0.9245368504937053
0.892245436637844
0.8692387704482899
0.8562655840736644
0.853783374432141
0.861882787862488
0.8802717870860433
0.9083256507634577
0.9451841863357759
0.9451841863357762
0.9083256507634578
0.8802717870860433
0.861882787862488
0.853783374432141
0.8562655840736644
0.8692387704482899
0.892245436637844
0.9245368504937053
0.9651815612669691
1.0131747598849021

SCALARS phi2 double 1
LOOKUP_TABLE default
1.2699974112506907
1.2320494213810462
1.2004743722530884
1.1757858009504467
1.158424089254916
1.1487214984427865
1.1468724344809933
1.1529146848441307
1.1667256531229966
1.1880344348336398
1.2164470710289248
1.2164470710289248
1.1880344348336398
1.1667256531229966
1.1529146848441307
1.1468724344809933
1.1487214984427865
1.158424089254916
1.1757858009504467
1.2004743722530884
1.2320494213810462
1.2699974112506907
1.1847215420513912
1.1439482000259196
1.109869553620432
1.0831177024376686
1.0642453092136472
1.053675846074973
1.0516596828772748
1.0582457078327374
1.0732755737798438
1.0964020822525176
1.1271269601211835
1.1271269601211835
1.0964020822525176
1.0732755737798438
1.0582457078327374
1.0516596828772748
1.053675846074973
1.0642453092136472
1.0831177024376686
1.109869553620432
1.1439482000259193
1.1847215420513912
1.1010801194222681
1.0570855128743708
1.02010917221636
0.9909370588085724
0.9702733508499458
0.9586683919834538
0.9564519777677606
0.9636888892857184
0.9801697579801081
1.0054401141559781
1.03885873987677
1.03885873987677
1.0054401141559783
0.9801697579801081
0.9636888892857184
0.9564519777677606
0.9586683919834538
0.9702733508499458
0.9909370588085724
1.02010917221636
1.0570855128743708
1.1010801194222681
1.0194755103201099
0.9717935317156434
0.9314373891977061
0.8993937631958964
0.8765747327667356
0.8637117415802756
0.8612509927607356
0.8692808303927065
0.8875165582761121
0.9153484090276653
0.9519350651036246
0.9519350651036248
0.9153484090276655
0.8875165582761121
0.8692808303927065
0.8612509927607356
0.8637117415802756
0.8765747327667356
0.8993937631958963
0.9314373891977061
0.9717935317156434
1.0194755103201099
0.9404380853980239
0.8885247011811296
0.8441973029571296
0.8087042831593811
0.7832475588533464
0.7688247192099674
0.7660592332555004
0.7750758920343775
0.7954741463673901
0.826411632441201
0.8667605462285962
0.8667605462285963
0.8264116324412011
0.7954741463673901
0.7750758920343775
0.7660592332555004
0.7688247192099674
0.7832475588533464
0.808704283159381
0.8441973029571295
0.8885247011811296
0.9404380853980239
0.8646721103174977
0.8079048276268868
0.7588828316768707
0.7191916875869342
0.6904424699738134
0.6740367310184951
0.6708806263038298
0.6811583547947568
0.7042820340124699
0.7390468538110048
0.7839055494077768
0.783905549407777
0.7390468538110048
0.7042820340124699
0.681158354794757
0.6708806263038299
0.6740367310184951
0.6904424699738134
0.7191916875869342
0.7588828316768705
0.8079048276268866
0.8646721103174977
0.7931157001496625
0.7308111014248512
0.6762231936845113
0.6313567446041239
0.598402422961768
0.5793963843734906
0.5757216951034532
0.5876660274081482
0.6143190041791937
0.6538844757225233
0.7041892968906038
0.7041892968906039
0.6538844757225233
0.6143190041791937
0.5876660274081482
0.5757216951034533
0.5793963843734906
0.598402422961768
0.6313567446041238
0.6762231936845111
0.7308111014248512
0.7931157001496625
0.7270129014371237
0.658483189609226
0.5973215655817358
0.5460096922118257
0.5075437959808499
0.48499011872120595
0.4805941273516868
0.49483997898493426
0.5262158149731458
0.5719092171167159
0.628806656204766
0.6288066562047662
0.5719092171167159
0.5262158149731458
0.4948399789849343
0.4805941273516868
0.48499011872120595
0.5075437959808499
0.5460096922118257
0.5973215655817355
0.6584831896092259
0.7270129014371237
0.6679847254670735
0.5926684955345919
0.5238786952246793
0.4645238622401968
0.4186365242545701
0.3909875315895714
0.3855211405957214
0.4031407191082375
0.4410883341567182
0.4947079817673771
0.5595119708180651
0.5595119708180654
0.49470798176737724
0.4410883341567182
0.4031407191082375
0.3855211405957214
0.3909875315895714
0.4186365242545701
0.46452386224019676
0.5238786952246792
0.5926684955345918
0.6679847254670735
0.6180614998750362
0.5357726847924353
0.4585251481443195
0.3893312763714303
0.3332461006679671
0.2977711772972054
0.29055631814965516
0.31355838941665154
0.36104756293265067
0.4248910582664799
0.49884874426941583
0.49884874426941606
0.42489105826648
0.36104756293265067
0.3135583894166516
0.29055631814965516
0.2977711772972054
0.3332461006679671
0.38933127637143017
0.45852514814431933
0.5357726847924352
0.6180614998750362
0.5796007516967158
0.49090669531929676
0.4051941821156725
0.32483204352499717
0.25493131888809495
0.20640903024960514
0.19585705950080606
0.22859544464661397
0.29033145960991724
0.36670072966170636
0.45031886857957854
0.4503188685795787
0.36670072966170647
0.29033145960991724
0.22859544464661402
0.1958570595008061
0.2064090302496051
0.25493131888809495
0.32483204352499706
0.4051941821156723
0.4909066953192967
0.5796007516967158
0.5549906617918698
0.46159179674046696
0.36913402515775817
0.27855602633833887
0.19252942803323134
0.12117050415576425
0.10216452938805108
0.1559919248613941
0.23742358717702142
0.32641542310866306
0.4181682516733801
0.41816825167338034
0.32641542310866317
0.23742358717702142
0.15599192486139418
0.10216452938805114
0.12117050415576419
0.19252942803323134
0.27855602633833876
0.36913402515775795
0.46159179674046685
0.5549906617918698
0.5461069744602409
0.45087157783124143
0.35563762653452335
0.2604067063025566
0.1651840595721749
0.07000345673824047
0.025608278798517035
0.12063031749897471
0.21584288875463398
0.31107108724718885
0.4063039251416506
0.40630392514165087
0.31107108724718896
0.21584288875463398
0.12063031749897482
0.025608278798517257
0.07000345673824038
0.1651840595721749
0.26040670630255647
0.3556376265345231
0.4508715778312413
0.5461069744602409
0.553707151842217
0.460047782456491
0.3672014486003708
0.27598991853770244
0.1887976588410076
0.11514888797728083
0.09494507038348142
0.15136200298293198
0.23440762588501032
0.32422832042906097
0.4164632781321946
0.4164632781321948
0.3242283204290611
0.23440762588501032
0.15136200298293204
0.09494507038348148
0.11514888797728076
0.1887976588410076
0.2759899185377023
0.3672014486003706
0.46004778245649086
0.553707151842217
0.5771403486306278
0.48799931778579103
0.4016668717612561
0.3204212963439076
0.24928683880242877
0.19939568304922498
0.18845142187414468
0.22228321565801526
0.2853879939473796
0.3627993602316747
0.4471476647024742
0.4471476647024744
0.36279936023167475
0.2853879939473796
0.22228321565801532
0.1884514218741447
0.19939568304922495
0.24928683880242877
0.3204212963439075
0.40166687176125593
0.4879993177857909
0.5771403486306278
0.6145981968757361
0.5317737260760642
0.45384605039142617
0.38380954747912904
0.3267780433039094
0.29051437142435926
0.28311464107638523
0.30667538138672185
0.35508628342240023
0.4198372748696047
0.494551307383066
0.49455130738306624
0.4198372748696048
0.35508628342240023
0.3066753813867219
0.28311464107638523
0.2905143714243592
0.3267780433039094
0.38380954747912893
0.453846050391426
0.5317737260760642
0.6145981968757361
0.6637103997659604
0.5878467886272798
0.5184175813092006
0.4583561059817121
0.4117820306182828
0.38363935037828856
0.3780667284308355
0.3960181065346331
0.43458810364449446
0.48892114755297783
0.5544019722086895
0.5544019722086897
0.4889211475529779
0.43458810364449446
0.39601810653463315
0.3780667284308355
0.38363935037828856
0.4117820306182828
0.45835610598171206
0.5184175813092005
0.5878467886272797
0.6637103997659604
0.7221029258223765
0.6530581808867809
0.5913357162680328
0.5394547808801626
0.5004853459032164
0.477598463023512
0.47313379912044
0.4875976634757613
0.5194111671432022
0.5656545140350835
0.623123332505396
0.6231233325053962
0.5656545140350836
0.5194111671432022
0.4875976634757613
0.47313379912044
0.477598463023512
0.5004853459032164
0.5394547808801625
0.5913357162680326
0.6530581808867808
0.7221029258223765
0.7877146474289678
0.7249460103456381
0.6698803323184924
0.6245583967151277
0.5912252631246137
0.5719807882921659
0.5682581474673701
0.5803561076786633
0.607329968671043
0.6473227630333828
0.6981005785741313
0.6981005785741314
0.6473227630333828
0.607329968671043
0.5803561076786634
0.5682581474673702
0.5719807882921659
0.5912252631246137
0.6245583967151276
0.6698803323184924
0.7249460103456381
0.7877146474289678
0.8588927090365889
0.8017163075415926
0.7522911534035219
0.7122327644593713
0.6831907724924541
0.6666065871542187
0.6634151355110274
0.6738067464651832
0.6971743043945593
0.7322766413065765
0.777526036649323
0.7775260366493232
0.7322766413065765
0.6971743043945593
0.6738067464651833
0.6634151355110275
0.6666065871542187
0.6831907724924541
0.7122327644593712
0.7522911534035218
0.8017163075415925
0.8588927090365889
0.9343658785868839
0.8820952030304633
0.8374275424897548
0.8016348421823163
0.7759462230400151
0.761385087500815
0.7585924804902456
0.7676968418674291
0.7882860649150576
0.8194949596150481
0.8601683829918612
0.8601683829918613
0.8194949596150481
0.7882860649150576
0.7676968418674291
0.7585924804902456
0.761385087500815
0.7759462230400151
0.8016348421823163
0.8374275424897548
0.8820952030304632
0.9343658785868839
1.0131747598849021
0.9651815612669691
0.9245368504937053
0.892245436637844
0.8692387704482899
0.8562655840736644
0.853783374432141
0.861882787862488
0.8802717870860433
0.9083256507634577
0.9451841863357759
0.9451841863357762
0.9083256507634578
0.8802717870860433
0.861882787862488
0.853783374432141
0.8562655840736644
0.8692387704482899
0.892245436637844
0.9245368504937053
0.9651815612669691
1.0131747598849021

SCALARS phi3 double 1
LOOKUP_TABLE default
-1.2401434992741867
-1.192524451655139
-1.146966488405608
-1.1076557381401737
-1.0753654878753434
-1.0497338980365511
-1.0257898897723567
-1.0088497300281039
-1.0007253605088324
-1
-1
-1
-1
-1.0007253605088324
-1.0088497300281036
-1.0257898897723567
-1.0497338980365511
-1.0753654878753434
-1.1076557381401737
-1.146966488405608
-1.192524451655139
-1.2401434992741867
-1.158494944721695
-1.1100458417709067
-1.062636505706679
-1.020081100682618
-0.9849239311989448
-0.9577409621994971
-0.9331875493530621
-0.9145336965285467
-0.9055635546298907
-0.9047619047619048
-0.9047619047619048
-0.9047619047619048
-0.9047619047619048
-0.9055635546298907
-0.9145336965285467
-0.933187549353062
-0.9577409621994969
-0.9849239311989448
-1.020081100682618
-1.062636505706679
-1.1100458417709067
-1.158494944721695
-1.0790697543375423
-1.0276065328100874
-0.9799481842676269
-0.934007633413149
-0.8954775025384799
-0.8657541483586644
-0.8410985934955361
-0.8204307258774008
-0.8104196723620879
-0.8095238095238095
-0.8095238095238095
-0.8095238095238095
-0.8095238095238095
-0.8104196723620879
-0.8204307258774008
-0.8410985934955361
-0.8657541483586644
-0.8954775025384799
-0.934007633413149
-0.9799481842676268
-1.0276065328100874
-1.0790697543375423
-1.0024036722177372
-0.9467823264211738
-0.8974695743833946
-0.8498915555218571
-0.8073570179455208
-0.7742581238021122
-0.749105657658482
-0.7266236022938085