# vtk DataFile Version 4.1
Header:
ASCII

DATASET UNSTRUCTURED_GRID
POINTS 484 double
-1 -1 0
-0.9047619047619048 -1 0
-0.8095238095238095 -1 0
-0.7142857142857143 -1 0
-0.6190476190476191 -1 0
-0.5238095238095238 -1 0
-0.4285714285714286 -1 0
-0.33333333333333337 -1 0
-0.23809523809523814 -1 0
-0.1428571428571429 -1 0
-0.04761904761904767 -1 0
0.04761904761904745 -1 0
0.1428571428571428 -1 0
0.23809523809523814 -1 0
0.33333333333333326 -1 0
0.4285714285714284 -1 0
0.5238095238095237 -1 0
0.6190476190476191 -1 0
0.7142857142857142 -1 0
0.8095238095238093 -1 0
0.9047619047619047 -1 0
1 -1 0
-1 -0.9047619047619048 0
-0.9047619047619048 -0.9047619047619048 0
-0.8095238095238095 -0.9047619047619048 0
-0.7142857142857143 -0.9047619047619048 0
-0.6190476190476191 -0.9047619047619048 0
-0.5238095238095238 -0.9047619047619048 0
-0.4285714285714286 -0.9047619047619048 0
-0.33333333333333337 -0.9047619047619048 0
-0.23809523809523814 -0.9047619047619048 0
-0.1428571428571429 -0.9047619047619048 0
-0.04761904761904767 -0.9047619047619048 0
0.04761904761904745 -0.9047619047619048 0
0.1428571428571428 -0.9047619047619048 0
0.23809523809523814 -0.9047619047619048 0
0.33333333333333326 -0.9047619047619048 0
0.4285714285714284 -0.9047619047619048 0
0.5238095238095237 -0.9047619047619048 0
0.6190476190476191 -0.9047619047619048 0
0.7142857142857142 -0.9047619047619048 0
0.8095238095238093 -0.9047619047619048 0
0.9047619047619047 -0.9047619047619048 0
1 -0.9047619047619048 0
-1 -0.8095238095238095 0
-0.9047619047619048 -0.8095238095238095 0
-0.8095238095238095 -0.8095238095238095 0
-0.7142857142857143 -0.8095238095238095 0
-0.6190476190476191 -0.8095238095238095 0
-0.5238095238095238 -0.8095238095238095 0
-0.4285714285714286 -0.8095238095238095 0
-0.33333333333333337 -0.8095238095238095 0
-0.23809523809523814 -0.8095238095238095 0
-0.1428571428571429 -0.8095238095238095 0
-0.04761904761904767 -0.8095238095238095 0
0.04761904761904745 -0.8095238095238095 0
0.1428571428571428 -0.8095238095238095 0
0.23809523809523814 -0.8095238095238095 0
0.33333333333333326 -0.8095238095238095 0
0.4285714285714284 -0.8095238095238095 0
0.5238095238095237 -0.8095238095238095 0
0.6190476190476191 -0.8095238095238095 0
0.7142857142857142 -0.8095238095238095 0
0.8095238095238093 -0.8095238095238095 0
0.9047619047619047 -0.8095238095238095 0
1 -0.8095238095238095 0
-1 -0.7142857142857143 0
-0.9047619047619048 -0.7142857142857143 0
-0.8095238095238095 -0.7142857142857143 0
-0.7142857142857143 -0.7142857142857143 0
-0.6190476190476191 -0.7142857142857143 0
-0.5238095238095238 -0.7142857142857143 0
-0.4285714285714286 -0.7142857142857143 0
-0.33333333333333337 -0.7142857142857143 0
-0.23809523809523814 -0.7142857142857143 0
-0.1428571428571429 -0.7142857142857143 0
-0.04761904761904767 -0.7142857142857143 0
0.04761904761904745 -0.7142857142857143 0
0.1428571428571428 -0.7142857142857143 0
0.23809523809523814 -0.7142857142857143 0
0.33333333333333326 -0.7142857142857143 0
0.4285714285714284 -0.7142857142857143 0
0.5238095238095237 -0.7142857142857143 0
0.6190476190476191 -0.7142857142857143 0
0.7142857142857142 -0.7142857142857143 0
0.8095238095238093 -0.7142857142857143 0
0.9047619047619047 -0.7142857142857143 0
1 -0.7142857142857143 0
-1 -0.6190476190476191 0
-0.9047619047619048 -0.6190476190476191 0
-0.8095238095238095 -0.6190476190476191 0
-0.7142857142857143 -0.6190476190476191 0
-0.6190476190476191 -0.6190476190476191 0
-0.5238095238095238 -0.6190476190476191 0
-0.4285714285714286 -0.6190476190476191 0
-0.33333333333333337 -0.6190476190476191 0
-0.23809523809523814 -0.6190476190476191 0
-0.1428571428571429 -0.6190476190476191 0
-0.04761904761904767 -0.6190476190476191 0
0.04761904761904745 -0.6190476190476191 0
0.1428571428571428 -0.6190476190476191 0
0.23809523809523814 -0.6190476190476191 0
0.33333333333333326 -0.6190476190476191 0
0.4285714285714284 -0.6190476190476191 0
0.5238095238095237 -0.6190476190476191 0
0.6190476190476191 -0.6190476190476191 0
0.7142857142857142 -0.6190476190476191 0
0.8095238095238093 -0.6190476190476191 0
0.9047619047619047 -0.6190476190476191 0
1 -0.6190476190476191 0
-1 -0.5238095238095238 0
-0.9047619047619048 -0.5238095238095238 0
-0.8095238095238095 -0.5238095238095238 0
-0.7142857142857143 -0.5238095238095238 0
-0.6190476190476191 -0.5238095238095238 0
-0.5238095238095238 -0.5238095238095238 0
-0.4285714285714286 -0.5238095238095238 0
-0.33333333333333337 -0.5238095238095238 0
-0.23809523809523814 -0.5238095238095238 0
-0.1428571428571429 -0.5238095238095238 0
-0.04761904761904767 -0.5238095238095238 0
0.04761904761904745 -0.5238095238095238 0
0.1428571428571428 -0.5238095238095238 0
0.23809523809523814 -0.5238095238095238 0
0.33333333333333326 -0.5238095238095238 0
0.4285714285714284 -0.5238095238095238 0
0.5238095238095237 -0.5238095238095238 0
0.6190476190476191 -0.5238095238095238 0
0.7142857142857142 -0.5238095238095238 0
0.8095238095238093 -0.5238095238095238 0
0.9047619047619047 -0.5238095238095238 0
1 -0.5238095238095238 0
-1 -0.4285714285714286 0
-0.9047619047619048 -0.4285714285714286 0
-0.8095238095238095 -0.4285714285714286 0
-0.7142857142857143 -0.4285714285714286 0
-0.6190476190476191 -0.4285714285714286 0
-0.5238095238095238 -0.4285714285714286 0
-0.4285714285714286 -0.4285714285714286 0
-0.33333333333333337 -0.4285714285714286 0
-0.23809523809523814 -0.4285714285714286 0
-0.1428571428571429 -0.4285714285714286 0
-0.04761904761904767 -0.4285714285714286 0
0.04761904761904745 -0.4285714285714286 0
0.1428571428571428 -0.4285714285714286 0
0.23809523809523814 -0.4285714285714286 0
0.33333333333333326 -0.4285714285714286 0
0.4285714285714284 -0.4285714285714286 0
0.5238095238095237 -0.4285714285714286 0
0.6190476190476191 -0.4285714285714286 0
0.7142857142857142 -0.4285714285714286 0
0.8095238095238093 -0.4285714285714286 0
0.9047619047619047 -0.4285714285714286 0
1 -0.4285714285714286 0
-1 -0.33333333333333337 0
-0.9047619047619048 -0.33333333333333337 0
-0.8095238095238095 -0.33333333333333337 0
-0.7142857142857143 -0.33333333333333337 0
-0.6190476190476191 -0.33333333333333337 0
-0.5238095238095238 -0.33333333333333337 0
-0.4285714285714286 -0.33333333333333337 0
-0.33333333333333337 -0.33333333333333337 0
-0.23809523809523814 -0.33333333333333337 0
-0.1428571428571429 -0.33333333333333337 0
-0.04761904761904767 -0.33333333333333337 0
0.04761904761904745 -0.33333333333333337 0
0.1428571428571428 -0.33333333333333337 0
0.23809523809523814 -0.33333333333333337 0
0.33333333333333326 -0.33333333333333337 0
0.4285714285714284 -0.33333333333333337 0
0.5238095238095237 -0.33333333333333337 0
0.6190476190476191 -0.33333333333333337 0
0.7142857142857142 -0.33333333333333337 0
0.8095238095238093 -0.33333333333333337 0
0.9047619047619047 -0.33333333333333337 0
1 -0.33333333333333337 0
-1 -0.23809523809523814 0
-0.9047619047619048 -0.23809523809523814 0
-0.8095238095238095 -0.23809523809523814 0
-0.7142857142857143 -0.23809523809523814 0
-0.6190476190476191 -0.23809523809523814 0
-0.5238095238095238 -0.23809523809523814 0
-0.4285714285714286 -0.23809523809523814 0
-0.33333333333333337 -0.23809523809523814 0
-0.23809523809523814 -0.23809523809523814 0
-0.1428571428571429 -0.23809523809523814 0
-0.04761904761904767 -0.23809523809523814 0
0.04761904761904745 -0.23809523809523814 0
0.1428571428571428 -0.23809523809523814 0
0.23809523809523814 -0.23809523809523814 0
0.33333333333333326 -0.23809523809523814 0
0.4285714285714284 -0.23809523809523814 0
0.5238095238095237 -0.23809523809523814 0
0.6190476190476191 -0.23809523809523814 0
0.7142857142857142 -0.23809523809523814 0
0.8095238095238093 -0.23809523809523814 0
0.9047619047619047 -0.23809523809523814 0
1 -0.23809523809523814 0
-1 -0.1428571428571429 0
-0.9047619047619048 -0.1428571428571429 0
-0.8095238095238095 -0.1428571428571429 0
-0.7142857142857143 -0.1428571428571429 0
-0.6190476190476191 -0.1428571428571429 0
-0.5238095238095238 -0.1428571428571429 0
-0.4285714285714286 -0.1428571428571429 0
-0.33333333333333337 -0.1428571428571429 0
-0.23809523809523814 -0.1428571428571429 0
-0.1428571428571429 -0.1428571428571429 0
-0.04761904761904767 -0.1428571428571429 0
0.04761904761904745 -0.1428571428571429 0
0.1428571428571428 -0.1428571428571429 0
0.23809523809523814 -0.1428571428571429 0
0.33333333333333326 -0.1428571428571429 0
0.4285714285714284 -0.1428571428571429 0
0.5238095238095237 -0.1428571428571429 0
0.6190476190476191 -0.1428571428571429 0
0.7142857142857142 -0.1428571428571429 0
0.8095238095238093 -0.1428571428571429 0
0.9047619047619047 -0.1428571428571429 0
1 -0.1428571428571429 0
-1 -0.04761904761904767 0
-0.9047619047619048 -0.04761904761904767 0
-0.8095238095238095 -0.04761904761904767 0
-0.7142857142857143 -0.04761904761904767 0
-0.6190476190476191 -0.04761904761904767 0
-0.5238095238095238 -0.04761904761904767 0
-0.4285714285714286 -0.04761904761904767 0
-0.33333333333333337 -0.04761904761904767 0
-0.23809523809523814 -0.04761904761904767 0
-0.1428571428571429 -0.04761904761904767 0
-0.04761904761904767 -0.04761904761904767 0
0.04761904761904745 -0.04761904761904767 0
0.1428571428571428 -0.04761904761904767 0
0.23809523809523814 -0.04761904761904767 0
0.33333333333333326 -0.04761904761904767 0
0.4285714285714284 -0.04761904761904767 0
0.5238095238095237 -0.04761904761904767 0
0.6190476190476191 -0.04761904761904767 0
0.7142857142857142 -0.04761904761904767 0
0.8095238095238093 -0.04761904761904767 0
0.9047619047619047 -0.04761904761904767 0
1 -0.04761904761904767 0
-1 0.04761904761904745 0
-0.9047619047619048 0.04761904761904745 0
-0.8095238095238095 0.04761904761904745 0
-0.7142857142857143 0.04761904761904745 0
-0.6190476190476191 0.04761904761904745 0
-0.5238095238095238 0.04761904761904745 0
-0.4285714285714286 0.04761904761904745 0
-0.33333333333333337 0.04761904761904745 0
-0.23809523809523814 0.04761904761904745 0
-0.1428571428571429 0.04761904761904745 0
-0.04761904761904767 0.04761904761904745 0
[...]
POINT_DATA 484
SCALARS phi1 double 1
LOOKUP_TABLE default
1.2401434992741867
1.192524451655139
1.146966488405608
1.1076557381401737
1.0753654878753434
1.0497338980365511
1.0257898897723567
1.0088497300281039
1.0007253605088324
1
1
1
1
1.0007253605088324
1.0088497300281036
1.0257898897723567
1.0497338980365511
1.0753654878753434
1.1076557381401737
1.146966488405608
1.192524451655139
1.2401434992741867
1.158494944721695
1.1100458417709067
1.062636505706679
1.020081100682618
0.9849239311989448
0.9577409621994971
0.9331875493530621
0.9145336965285467
0.9055635546298907
0.9047619047619048
0.9047619047619048
0.9047619047619048
0.9047619047619048
0.9055635546298907
0.9145336965285467
0.933187549353062
0.9577409621994969
0.9849239311989448
1.020081100682618
1.062636505706679
1.1100458417709067
1.158494944721695
1.0790697543375423
1.0276065328100874
0.9799481842676269
0.934007633413149
0.8954775025384799
0.8657541483586644
0.8410985934955361
0.8204307258774008
0.8104196723620879
0.8095238095238095
0.8095238095238095
0.8095238095238095
0.8095238095238095
0.8104196723620879
0.8204307258774008
0.8410985934955361
0.8657541483586644
0.8954775025384799
0.934007633413149
0.9799481842676268
1.0276065328100874
1.0790697543375423
1.0024036722177372
0.9467823264211738
0.8974695743833946
0.8498915555218571
0.8073570179455208
0.7742581238021122
0.749105657658482
0.7266236022938085
0.7153008659285867
0.7142857142857143
0.7142857142857143
0.7142857142857143
0.7142857142857143
0.7153008659285867
0.7266236022938085
0.749105657658482
0.7742581238021122
0.8073570179455208
0.8498915555218571
0.8974695743833946
0.9467823264211738
1.0024036722177372
0.9291799066888431
0.8688837382194308
0.8152810507176154
0.7673719168801149
0.7210487784251325
0.6837847824542885
0.657112721821428
0.6332438175192111
0.6202186725777119
0.6190476190476191
0.6190476190476191
0.6190476190476191
0.6190476190476191
0.6202186725777119
0.6332438175192111
0.6571127218214279
0.6837847824542884
0.7210487784251325
0.7673719168801147
0.8152810507176151
0.8688837382194308
0.9291799066888431
0.8602779001474641
0.7947714873031212
0.735789343594389
0.6848933069958824
0.6372742593768349
0.5948009790910833
0.5651197859843738
0.5405128999490557
0.5251929782461805
0.5238095238095238
0.5238095238095238
0.5238095238095238
0.5238095238095238
0.5251929782461805
0.5405128999490557
0.5651197859843738
0.5948009790910833
0.6372742593768349
0.6848933069958824
0.7357893435943889
0.7947714873031212
0.8602779001474641
0.7968195664886338
0.7256066931106822
0.6604765811170492
0.60340214193378
0.5547956494926026
0.5080899234471443
0.4732295930363706
0.44847741728041296
0.43026121897434355
0.4285714285714286
0.4285714285714286
0.4285714285714286
0.4285714285714286
0.43026121897434355
0.44847741728041296
0.47322959303637047
0.5080899234471443
0.5547956494926026
0.60340214193378
0.6604765811170491
0.7256066931106822
0.7968195664886338
0.7402063004090815
0.6629396795434594
0.5909426874327418
0.5263820765531807
0.4723170396083704
0.42469799198932273
0.3826930922754467
0.35648448144335887
0.3355031419773055
0.33333333333333337
0.33333333333333337
0.33333333333333337
0.33333333333333337
0.3355031419773055
0.3564844814433588
0.3826930922754466
0.4246979919893227
0.4723170396083704
0.5263820765531806
0.5909426874327417
0.6629396795434594
0.7402063004090815
0.6921198612672704
0.6087803823288911
0.5294693523005437
0.45629225909691334
0.3926933230488304
0.34221938210509045
0.29513106850089366
0.2644915456063048
0.24112359811756504
0.23809523809523814
0.23809523809523814
0.23809523809523814
0.23809523809523814
0.24112359811756504
0.2644915456063047
0.29513106850089355
0.3422193821050904
0.3926933230488304
0.45629225909691323
0.5294693523005436
0.6087803823288911
0.6921198612672704
0.6544425315679847
0.565578180867153
0.4791689887607966
0.39682206399878
0.32167245877075057
0.2600368830688247
0.21212172460181064
0.17249860976925063
0.1478492828215241
0.1428571428571429
0.1428571428571429
0.1428571428571429
0.1428571428571429
0.1478492828215241
0.1724986097692506
0.2121217246018105
0.26003688306882466
0.32167245877075057
0.3968220639987799
0.47916898876079644
0.565578180867153
0.6544425315679847
0.6290474874433256
0.5359891724714653
0.4438565467847608
0.35337439750199784
0.2662308867604741
0.18714939190336088
0.12964311471757836
0.08217221383313479
0.05585624106528981
0.04761904761904767
0.04761904761904767
0.04761904761904767
0.04761904761904767
0.05585624106528981
0.08217221383313475
0.12964311471757828
0.18714939190336077
0.2662308867604741
0.35337439750199773
0.4438565467847606
0.5359891724714653
0.6290474874433256
0.6174520591605229
0.5223319795967457
0.42726448252400023
0.33229470160192004
0.23753986816548814
0.14342663208974435
0.05345837807394903
0.00045454278570139945
0.036136694771764205
0.04761904761904745
0.04761904761904745
0.04761904761904745
0.04761904761904745
0.036136694771764205
0.00045454278570145496
0.05345837807394884
0.14342663208974424
0.23753986816548814
0.33229470160191993
0.427264482524
0.5223319795967457
0.6174520591605229
0.6204304464108287
0.5258493989550862
0.4315574486652638
0.33779677645690936
0.24517765485469428
0.1557500955523848
0.08089926858919916
0.08293315266993376
0.1281296306088184
0.1428571428571428
0.1428571428571428
0.1428571428571428
0.1428571428571428
0.1281296306088184
0.08293315266993381
0.08089926858919903
0.1557500955523847
0.24517765485469428
0.33779677645690925
0.4315574486652636
0.5258493989550862
0.6204304464108287
0.6377785053407423
0.5462097339141408
0.4561461548008521
0.36869248056586446
0.28625087856839626
0.21467551165819576
0.16844041884119895
0.1697037526463393
0.21303081017321374
0.23809523809523814
0.23809523809523814
0.23809523809523814
0.23809523809523814
0.21303081017321374
0.16970375264633936
0.1684404188411989
0.2146755116581957
0.28625087856839626
0.36869248056586434
0.4561461548008519
0.5462097339141408
0.6377785053407423
0.6683782570408491
0.5816469255767184
0.49803352010672436
0.4194069835328239
0.34915274321057654
0.29334902064946494
0.2614196765924299
0.26223545960175176
0.2955253200735165
0.33333333333333326
0.33333333333333326
0.33333333333333326
0.33333333333333326
0.2955253200735165
0.2622354596017518
0.2614196765924298
0.2933490206494649
0.34915274321057654
0.4194069835328238
0.4980335201067242
0.5816469255767184
0.6683782570408491
0.7105196384790615
0.6296203683270591
0.5533046623058114
0.4837467105992096
0.4242832783305558
0.37968712131892657
0.355596554383115
0.3561967131403587
0.38137104895889434
0.42560707756072563
0.4285714285714284
0.4285714285714284
0.4256070775607257
0.38137104895889434
0.3561967131403587
0.35559655438311494
0.3796871213189265
0.4242832783305558
0.48374671059920954
0.5533046623058113
0.6296203683270591
0.7105196384790615
0.7622908948774284
0.6875107707962951
0.6183811939879497
0.5570099925173422
0.5062267792398364
0.46948009738866187
0.45022012531400435
0.4506942979455245
0.4708429979649496
0.5083320733868707
0.5238095238095237
0.5238095238095237
0.5083320733868708
0.4708429979649496
0.4506942979455245
0.45022012531400435
0.4694800973886618
0.5062267792398364
0.5570099925173422
0.6183811939879496
0.6875107707962951
0.7622908948774284
0.8218742298738936
0.7530344622118506
0.6904963015076455
0.6361210365032308
0.592161627714354
0.5610716559957761
0.5450577974449434
0.5454495315960811
0.5622125666066143
0.5939624046617514
0.6190476190476191
0.6190476190476191
0.5939624046617514
0.5622125666066143
0.5454495315960811
0.5450577974449433
0.5610716559957761
0.592161627714354
0.6361210365032308
0.6904963015076454
0.7530344622118506
0.8218742298738936
0.8876979670010187
0.8243732966112056
0.7676689216600301
0.7191525595928034
0.6805775666478062
0.6537062291647362
0.6400144009649071
0.6403480478656278
0.654685726847113
0.6821449765544756
0.7142857142857142
0.7142857142857142
0.6821449765544757
0.654685726847113
0.6403480478656278
0.6400144009649071
0.6537062291647361
0.6805775666478062
0.7191525595928034
0.7676689216600299
0.8243732966112056
0.8876979670010187
0.9584772825027407
0.9001457396564869
0.8485202376718957
0.8048921818634951
0.7706210772359825
0.7469958865381224
0.7350438448817634
0.7353343748672553
0.7478532084529889
0.7720056926568631
0.8067476353637099
0.80674763536371
0.7720056926568631
0.7478532084529889
0.7353343748672553
0.7350438448817634
0.7469958865381224
0.7706210772359825
0.804892181863495
0.8485202376718955
0.9001457396564869
0.9584772825027407
1.033194227190172
0.9793232166383997
0.9320934522696898
0.8925598212166151
0.8617821387715136
0.8407225847627346
0.8301211140091692
0.8303783793468346
0.8414844213761107
0.863020509327479
0.8942333907824039
0.894233390782404
0.863020509327479
0.8414844213761107
0.8303783793468346
0.8301211140091692
0.8407225847627346
0.8617821387715136
0.892559821216615
0.9320934522696896
0.9793232166383997
1.033194227190172
1.1110546839348259
1.0611437990401684
1.017718233775168
0.9816390548692809
0.9537403495186851
0.9347548684679599
0.9252314648336617
0.9254622912259012
0.935440126899155
0.9548594656357974
0.9831610024734581
0.9831610024734581
0.9548594656357974
0.935440126899155
0.9254622912259012
0.9252314648336617
0.9347548684679599
0.9537403495186851
0.9816390548692809
1.017718233775168
1.0611437990401684
1.1110546839348259

SCALARS phi2 double 1
LOOKUP_TABLE default
1.2401492364770155
1.1956394859163901
1.1572718010041791
1.1256743987875284
1.10143010324806
1.0850319267955029
1.0768383729971978
1.0770367080662122
1.0856223326065633
1.1023993002334902
1.127001852183759
1.127001852183759
1.1023993002334904
1.0856223326065633
1.0770367080662122
1.0768383729971978
1.0850319267955029
1.10143010324806
1.1256743987875284
1.1572718010041791
1.1956394859163901
1.2401492364770155
1.158494944721695
1.1107178707906022
1.069307453266204
1.0350281446882796
1.0086072974910656
0.9906738567140855
0.9816930730989452
0.9819106266526002
0.9913204614378311
1.0096656007641778
1.0364716991007628
1.036471699100763
1.0096656007641778
0.9913204614378311
0.9819106266526002
0.9816930730989452
0.9906738567140855
1.0086072974910656
1.0350281446882796
1.069307453266204
1.1107178707906022
1.158494944721695
1.0790697543375423
1.0276065328100874
0.9827000699048594
0.9452852786737044
0.9162803492013737
0.8965019175423556
0.8865677004892583
0.8868085906855337
0.8972163925417741
0.9174451608389725
0.9468656614415704
0.9468656614415705
0.9174451608389725
0.8972163925417741
0.8868085906855337
0.8865677004892583
0.8965019175423556
0.9162803492013737
0.9452852786737044
0.9827000699048593
1.0276065328100874
1.0790697543375423
1.0024036722177372
0.9467823264211738
0.897842421998725
0.856729738848106
0.8246158291484055
0.802581631677826
0.7914694402820188
0.7917392650760624
0.8033796377773063
0.825909928803601
0.8584731610054583
0.8584731610054585
0.825909928803601
0.8033796377773063
0.7917392650760624
0.7914694402820188
0.802581631677826
0.8246158291484055
0.856729738848106
0.8978424219987249
0.9467823264211738
1.0024036722177372
0.9291799066888431
0.8688837382194308
0.8152810507176154
0.7697714091504219
0.7338620051486483
0.7090130128744634
0.6964093995768684
0.6967160402788685
0.7099162058397303
0.7353158419448418
0.7717113094191286
0.7717113094191286
0.7353158419448418
0.7099162058397303
0.6967160402788685
0.6964093995768684
0.7090130128744634
0.7338620051486483
0.7697714091504219
0.8152810507176151
0.8688837382194308
0.9291799066888431
0.8602779001474641
0.7947714873031212
0.735789343594389
0.6850188237072535
0.6444037624724406
0.6159563449735436
0.6014057019241317
0.6017607558404825
0.616995774541221
0.6460589399605075
0.6871980148204948
0.6871980148204949
0.6460589399605075
0.616995774541221
0.6017607558404825
0.6014057019241316
0.6159563449735436
0.6444037624724406
0.6850188237072534
0.7357893435943889
0.7947714873031212
0.8602779001474641
0.7968195664886338
0.7256066931106822
0.6604765811170492
0.60340214193378
0.5568658412451261
0.5236846140284926
0.5064900535685393
0.5069115932060669
0.5249067934964506
0.5587803772144284
0.6058749603921862
0.6058749603921864
0.5587803772144284
0.5249067934964506
0.5069115932060669
0.5064900535685392
0.5236846140284926
0.5568658412451261
0.60340214193378
0.6604765811170491
0.7256066931106822
0.7968195664886338
0.7402063004090815
0.6629396795434594
0.5909426874327418
0.5263820765531807
0.47231717179434307
0.4327002664620584
0.41172335370977775
0.41224180883660766
0.43417863545422236
0.474572919145271
0.5292149027157098
0.52921490271571
0.47457291914527105
0.43417863545422236
0.41224180883660766
0.41172335370977775
0.4327002664620584
0.47231717179434307
0.5263820765531806
0.5909426874327417
0.6629396795434594
0.7402063004090815
0.6921198612672704
0.6087803823288911
0.5294693523005437
0.45629225909691334
0.3926933230488304
0.3440262428822291
0.31723911358051815
0.3179116923741627
0.3458838283010882
0.39540357962642425
0.45955733967778645
0.4595573396777866
0.3954035796264243
0.3458838283010882
0.3179116923741627
0.3172391135805181
0.34402624288222905
0.3926933230488304
0.45629225909691323
0.5294693523005436
0.6087803823288911
0.6921198612672704
0.6544425315679847
0.565578180867153
0.4791689887607966
0.39682206399878
0.32167245877075057
0.2600368830688247
0.22339601596680284
0.22435010343811168
0.2624895187330416
0.3249755614594383
0.4005721822795631
0.4005721822795633
0.3249755614594384
0.2624895187330416
0.2243501034381117
0.22339601596680278
0.26003688306882466
0.32167245877075057
0.3968220639987799
0.47916898876079644
0.565578180867153
0.6544425315679847
0.6290474874433256
0.5359891724714653
0.4438565467847608
0.35337439750199784
0.2662308867604741
0.18714939190336088
0.13157315183383025
0.13318664815340736
0.19054254584830105
0.27021256425178547
0.35758046304273905
0.3575804630427392
0.2702125642517856
0.19054254584830105
0.13318664815340742
0.13157315183383017
0.18714939190336077
0.2662308867604741
0.35337439750199773
0.4438565467847606
0.5359891724714653
0.6290474874433256
0.6174520591605229
0.5223319795967457
0.42726448252400023
0.33229470160192004
0.23753986816548814
0.14342663208974435
0.05345837807394903
0.057314807416135136
0.1478268097510091
0.24199407799021533
0.33676414811061584
0.33676414811061606
0.24199407799021544
0.1478268097510091
0.05731480741613523
0.05345837807394884
0.14342663208974424
0.23753986816548814
0.33229470160191993
0.427264482524
0.5223319795967457
0.6174520591605229
0.6204304464108287
0.5258493989550862
0.4315574486652638
0.33779677645690936
0.24517765485469428
0.1557500955523848
0.08089926858919916
0.08349778812111593
0.15981132360734376
0.24949554556004508
0.34219436717257473
0.34219436717257495
0.2494955455600452
0.15981132360734376
0.083497788121116
0.08089926858919903
0.1557500955523847
0.24517765485469428
0.33779677645690925
0.4315574486652636
0.5258493989550862
0.6204304464108287
0.6377785053407423
0.5462097339141408
0.4561461548008521
0.36869248056586446
0.28625087856839626
0.21467551165819576
0.16844041884119895
0.1697037526463393
0.21763993703882176
0.28995777329714006
0.37272572753402744
0.3727257275340276
0.2899577732971402
0.21763993703882176
0.16970375264633936
0.1684404188411989
0.2146755116581957
0.28625087856839626
0.36869248056586434
0.4561461548008519
0.5462097339141408
0.6377785053407423
0.6683782570408491
0.5816469255767184
0.49803352010672436
0.4194069835328239
0.34915274321057654
0.29334902064946494
0.2614196765924299
0.26223545960175176
0.2955253200735165
0.3521982153642005
0.4229569015586129
0.42295690155861304
0.3521982153642006
0.2955253200735165
0.2622354596017518
0.2614196765924298
0.2933490206494649
0.34915274321057654
0.4194069835328238
0.4980335201067242
0.5816469255767184
0.6683782570408491
0.7105196384790615
0.6296203683270591
0.5533046623058114
0.4837467105992096
0.4242832783305558
0.37968712131892657
0.355596554383115
0.3561967131403587
0.38137104895889434
0.42679297684612943
0.48682769308608065
0.4868276930860808
0.4267929768461295
0.38137104895889434
0.3561967131403587
0.35559655438311494
0.3796871213189265
0.4242832783305558
0.48374671059920954
0.5533046623058113
0.6296203683270591
0.7105196384790615
0.7622908948774284
0.6875107707962951
0.6183811939879497
0.5570099925173422
0.5062267792398364
0.46948009738866187
0.45022012531400435
0.4506942979455245
0.4708429979649496
0.5083320733868707
0.5596878187919845
0.5596878187919847
0.5083320733868708
0.4708429979649496
0.4506942979455245
0.45022012531400435
0.4694800973886618
0.5062267792398364
0.5570099925173422
0.6183811939879496
0.6875107707962951
0.7622908948774284
0.8218742298738936
0.7530344622118506
0.6904963015076455
0.6361210365032308
0.592161627714354
0.5610716559957761
0.5450577974449434
0.5454495315960811
0.5622125666066143
0.5939624046617514
0.6384671454522186
0.6384671454522187
0.5939624046617514
0.5622125666066143
0.5454495315960811
0.5450577974449433
0.5610716559957761
0.592161627714354
0.6361210365032308
0.6904963015076454
0.7530344622118506
0.8218742298738936
0.8876979670010187
0.8243732966112056
0.7676689216600301
0.7191525595928034
0.6805775666478062
0.6537062291647362
0.6400144009649071
0.6403480478656278
0.654685726847113
0.6821449765544756
0.7212286230515539
0.721228623051554
0.6821449765544757
0.654685726847113
0.6403480478656278
0.6400144009649071
0.6537062291647361
0.6805775666478062
0.7191525595928034
0.7676689216600299
0.8243732966112056
0.8876979670010187
0.9584772825027407
0.9001457396564869
0.8485202376718957
0.8048921818634951
0.7706210772359825
0.7469958865381224
0.7350438448817634
0.7353343748672553
0.7478532084529889
0.7720056926568631
0.8067476353637099
0.80674763536371
0.7720056926568631
0.7478532084529889
0.7353343748672553
0.7350438448817634
0.7469958865381224
0.7706210772359825
0.804892181863495
0.8485202376718955
0.9001457396564869
0.9584772825027407
1.033194227190172
0.9793232166383997
0.9320934522696898
0.8925598212166151
0.8617821387715136
0.8407225847627346
0.8301211140091692
0.8303783793468346
0.8414844213761107
0.863020509327479
0.8942333907824039
0.894233390782404
0.863020509327479
0.8414844213761107
0.8303783793468346
0.8301211140091692
0.8407225847627346
0.8617821387715136
0.892559821216615
0.9320934522696896
0.9793232166383997
1.033194227190172
1.1110546839348259
1.0611437990401684
1.017718233775168
0.9816390548692809
0.9537403495186851
0.9347548684679599
0.9252314648336617
0.9254622912259012
0.935440126899155
0.9548594656357974
0.9831610024734581
0.9831610024734581
0.9548594656357974
0.935440126899155
0.9254622912259012
0.9252314648336617
0.9347548684679599
0.9537403495186851
0.9816390548692809
1.017718233775168
1.0611437990401684
1.1110546839348259

SCALARS phi3 double 1
LOOKUP_TABLE default
-1.2401434992741867
-1.192524451655139
-1.146966488405608
-1.1076557381401737
-1.0753654878753434
-1.0497338980365511
-1.0257898897723567
-1.0088497300281039
-1.0007253605088324
-1
-1
-1
-1
-1.0007253605088324
-1.0088497300281036
-1.0257898897723567
-1.0497338980365511
-1.0753654878753434
-1.1076557381401737
-1.146966488405608
-1.192524451655139
-1.2401434992741867
-1.1576648893899555
-1.1100458417709067
-1.062636505706679
-1.020081100682618
-0.9849239311989448
-0.9577409621994971
-0.9331875493530621
-0.9145336965285467
-0.9055635546298907
-0.9047619047619048
-0.9047619047619048
-0.9047619047619048
-0.9047619047619048
-0.9055635546298907
-0.9145336965285467
-0.933187549353062
-0.9577409621994969
-0.9849239311989448
-1.020081100682618
-1.062636505706679
-1.1100458417709067
-1.1576648893899544
-1.0751862795057232
-1.0275672318866755
-0.9799481842676269
-0.934007633413149
-0.8954775025384799
-0.8657541483586644
-0.8410985934955361
-0.8204307258774008
-0.8104196723620879
-0.8095238095238095
-0.8095238095238095
-0.8095238095238095
-0.8095238095238095
-0.8104196723620879
-0.8204307258774008
-0.8410985934955361
-0.8657541483586644
-0.8954775025384799
-0.934007633413149
-0.9799481842676268
-1.0275672318866744
-1.075186279505722
-0.9927076696214892
-0.9450886220024417
-0.8974695743833946
-0.8498915555218571
-0.8073570179455208
-0.7742581238021122
-0.749105657658482
-0.7266236022938085
-0.7153008659285867