# vtk DataFile Version 4.1
Header:
ASCII

DATASET UNSTRUCTURED_GRID
POINTS 484 double
-1 -1 0
-0.9047619047619048 -1 0
-0.8095238095238095 -1 0
-0.7142857142857143 -1 0
-0.6190476190476191 -1 0
-0.5238095238095238 -1 0
-0.4285714285714286 -1 0
-0.33333333333333337 -1 0
-0.23809523809523814 -1 0
-0.1428571428571429 -1 0
-0.04761904761904767 -1 0
0.04761904761904745 -1 0
0.1428571428571428 -1 0
0.23809523809523814 -1 0
0.33333333333333326 -1 0
0.4285714285714284 -1 0
0.5238095238095237 -1 0
0.6190476190476191 -1 0
0.7142857142857142 -1 0
0.8095238095238093 -1 0
0.9047619047619047 -1 0
1 -1 0
-1 -0.9047619047619048 0
-0.9047619047619048 -0.9047619047619048 0
-0.8095238095238095 -0.9047619047619048 0
-0.7142857142857143 -0.9047619047619048 0
-0.6190476190476191 -0.9047619047619048 0
-0.5238095238095238 -0.9047619047619048 0
-0.4285714285714286 -0.9047619047619048 0
-0.33333333333333337 -0.9047619047619048 0
-0.23809523809523814 -0.9047619047619048 0
-0.1428571428571429 -0.9047619047619048 0
-0.04761904761904767 -0.9047619047619048 0
0.04761904761904745 -0.9047619047619048 0
0.1428571428571428 -0.9047619047619048 0
0.23809523809523814 -0.9047619047619048 0
0.33333333333333326 -0.9047619047619048 0
0.4285714285714284 -0.9047619047619048 0
0.5238095238095237 -0.9047619047619048 0
0.6190476190476191 -0.9047619047619048 0
0.7142857142857142 -0.9047619047619048 0
0.8095238095238093 -0.9047619047619048 0
0.9047619047619047 -0.9047619047619048 0
1 -0.9047619047619048 0
-1 -0.8095238095238095 0
-0.9047619047619048 -0.8095238095238095 0
-0.8095238095238095 -0.8095238095238095 0
-0.7142857142857143 -0.8095238095238095 0
-0.6190476190476191 -0.8095238095238095 0
-0.5238095238095238 -0.8095238095238095 0
-0.4285714285714286 -0.8095238095238095 0
-0.33333333333333337 -0.8095238095238095 0
-0.23809523809523814 -0.8095238095238095 0
-0.1428571428571429 -0.8095238095238095 0
-0.04761904761904767 -0.8095238095238095 0
0.04761904761904745 -0.8095238095238095 0
0.1428571428571428 -0.8095238095238095 0
0.23809523809523814 -0.8095238095238095 0
0.33333333333333326 -0.8095238095238095 0
0.4285714285714284 -0.8095238095238095 0
0.5238095238095237 -0.8095238095238095 0
0.6190476190476191 -0.8095238095238095 0
0.7142857142857142 -0.8095238095238095 0
0.8095238095238093 -0.8095238095238095 0
0.9047619047619047 -0.8095238095238095 0
1 -0.8095238095238095 0
-1 -0.7142857142857143 0
-0.9047619047619048 -0.7142857142857143 0
-0.8095238095238095 -0.7142857142857143 0
-0.7142857142857143 -0.7142857142857143 0
-0.6190476190476191 -0.7142857142857143 0
-0.5238095238095238 -0.7142857142857143 0
-0.4285714285714286 -0.7142857142857143 0
-0.33333333333333337 -0.7142857142857143 0
-0.23809523809523814 -0.7142857142857143 0
-0.1428571428571429 -0.7142857142857143 0
-0.04761904761904767 -0.7142857142857143 0
0.04761904761904745 -0.7142857142857143 0
0.1428571428571428 -0.7142857142857143 0
0.23809523809523814 -0.7142857142857143 0
0.33333333333333326 -0.7142857142857143 0
0.4285714285714284 -0.7142857142857143 0
0.5238095238095237 -0.7142857142857143 0
0.6190476190476191 -0.7142857142857143 0
0.7142857142857142 -0.7142857142857143 0
0.8095238095238093 -0.7142857142857143 0
0.9047619047619047 -0.7142857142857143 0
1 -0.7142857142857143 0
-1 -0.6190476190476191 0
-0.9047619047619048 -0.6190476190476191 0
-0.8095238095238095 -0.6190476190476191 0
-0.7142857142857143 -0.6190476190476191 0
-0.6190476190476191 -0.6190476190476191 0
-0.5238095238095238 -0.6190476190476191 0
-0.4285714285714286 -0.6190476190476191 0
-0.33333333333333337 -0.6190476190476191 0
-0.23809523809523814 -0.6190476190476191 0
-0.1428571428571429 -0.6190476190476191 0
-0.04761904761904767 -0.6190476190476191 0
0.04761904761904745 -0.6190476190476191 0
0.1428571428571428 -0.6190476190476191 0
0.23809523809523814 -0.6190476190476191 0
0.33333333333333326 -0.6190476190476191 0
0.4285714285714284 -0.6190476190476191 0
0.5238095238095237 -0.6190476190476191 0
0.6190476190476191 -0.6190476190476191 0
0.7142857142857142 -0.6190476190476191 0
0.8095238095238093 -0.6190476190476191 0
0.9047619047619047 -0.6190476190476191 0
1 -0.6190476190476191 0
-1 -0.5238095238095238 0
-0.9047619047619048 -0.5238095238095238 0
-0.8095238095238095 -0.5238095238095238 0
-0.7142857142857143 -0.5238095238095238 0
-0.6190476190476191 -0.5238095238095238 0
-0.5238095238095238 -0.5238095238095238 0
-0.4285714285714286 -0.5238095238095238 0
-0.33333333333333337 -0.5238095238095238 0
-0.23809523809523814 -0.5238095238095238 0
-0.1428571428571429 -0.5238095238095238 0
-0.04761904761904767 -0.5238095238095238 0
0.04761904761904745 -0.5238095238095238 0
0.1428571428571428 -0.5238095238095238 0
0.23809523809523814 -0.5238095238095238 0
0.33333333333333326 -0.5238095238095238 0
0.4285714285714284 -0.5238095238095238 0
0.5238095238095237 -0.5238095238095238 0
0.6190476190476191 -0.5238095238095238 0
0.7142857142857142 -0.5238095238095238 0
0.8095238095238093 -0.5238095238095238 0
0.9047619047619047 -0.5238095238095238 0
1 -0.5238095238095238 0
-1 -0.4285714285714286 0
-0.9047619047619048 -0.4285714285714286 0
-0.8095238095238095 -0.4285714285714286 0
-0.7142857142857143 -0.4285714285714286 0
-0.6190476190476191 -0.4285714285714286 0
-0.5238095238095238 -0.4285714285714286 0
-0.4285714285714286 -0.4285714285714286 0
-0.33333333333333337 -0.4285714285714286 0
-0.23809523809523814 -0.4285714285714286 0
-0.1428571428571429 -0.4285714285714286 0
-0.04761904761904767 -0.4285714285714286 0
0.04761904761904745 -0.4285714285714286 0
0.1428571428571428 -0.4285714285714286 0
0.23809523809523814 -0.4285714285714286 0
0.33333333333333326 -0.4285714285714286 0
0.4285714285714284 -0.4285714285714286 0
0.5238095238095237 -0.4285714285714286 0
0.6190476190476191 -0.4285714285714286 0
0.7142857142857142 -0.4285714285714286 0
0.8095238095238093 -0.4285714285714286 0
0.9047619047619047 -0.4285714285714286 0
1 -0.4285714285714286 0
-1 -0.33333333333333337 0
-0.9047619047619048 -0.33333333333333337 0
-0.8095238095238095 -0.33333333333333337 0
-0.7142857142857143 -0.33333333333333337 0
-0.6190476190476191 -0.33333333333333337 0
-0.5238095238095238 -0.33333333333333337 0
-0.4285714285714286 -0.33333333333333337 0
-0.33333333333333337 -0.33333333333333337 0
-0.23809523809523814 -0.33333333333333337 0
-0.1428571428571429 -0.33333333333333337 0
-0.04761904761904767 -0.33333333333333337 0
0.04761904761904745 -0.33333333333333337 0
0.1428571428571428 -0.33333333333333337 0
0.23809523809523814 -0.33333333333333337 0
0.33333333333333326 -0.33333333333333337 0
0.4285714285714284 -0.33333333333333337 0
0.5238095238095237 -0.33333333333333337 0
0.6190476190476191 -0.33333333333333337 0
0.7142857142857142 -0.33333333333333337 0
0.8095238095238093 -0.33333333333333337 0
0.9047619047619047 -0.33333333333333337 0
1 -0.33333333333333337 0
-1 -0.23809523809523814 0
-0.9047619047619048 -0.23809523809523814 0
-0.8095238095238095 -0.23809523809523814 0
-0.7142857142857143 -0.23809523809523814 0
-0.6190476190476191 -0.23809523809523814 0
-0.5238095238095238 -0.23809523809523814 0
-0.4285714285714286 -0.23809523809523814 0
-0.33333333333333337 -0.23809523809523814 0
-0.23809523809523814 -0.23809523809523814 0
-0.1428571428571429 -0.23809523809523814 0
-0.04761904761904767 -0.23809523809523814 0
0.04761904761904745 -0.23809523809523814 0
0.1428571428571428 -0.23809523809523814 0
0.23809523809523814 -0.23809523809523814 0
0.33333333333333326 -0.23809523809523814 0
0.4285714285714284 -0.23809523809523814 0
0.5238095238095237 -0.23809523809523814 0
0.6190476190476191 -0.23809523809523814 0
0.7142857142857142 -0.23809523809523814 0
0.8095238095238093 -0.23809523809523814 0
0.9047619047619047 -0.23809523809523814 0
1 -0.23809523809523814 0
-1 -0.1428571428571429 0
-0.9047619047619048 -0.1428571428571429 0
-0.8095238095238095 -0.1428571428571429 0
-0.7142857142857143 -0.1428571428571429 0
-0.6190476190476191 -0.1428571428571429 0
-0.5238095238095238 -0.1428571428571429 0
-0.4285714285714286 -0.1428571428571429 0
-0.33333333333333337 -0.1428571428571429 0
-0.23809523809523814 -0.1428571428571429 0
-0.1428571428571429 -0.1428571428571429 0
-0.04761904761904767 -0.1428571428571429 0
0.04761904761904745 -0.1428571428571429 0
0.1428571428571428 -0.1428571428571429 0
0.23809523809523814 -0.1428571428571429 0
0.33333333333333326 -0.1428571428571429 0
0.4285714285714284 -0.1428571428571429 0
0.5238095238095237 -0.1428571428571429 0
0.6190476190476191 -0.1428571428571429 0
0.7142857142857142 -0.1428571428571429 0
0.8095238095238093 -0.1428571428571429 0
0.9047619047619047 -0.1428571428571429 0
1 -0.1428571428571429 0
-1 -0.04761904761904767 0
-0.9047619047619048 -0.04761904761904767 0
-0.8095238095238095 -0.04761904761904767 0
-0.7142857142857143 -0.04761904761904767 0
-0.6190476190476191 -0.04761904761904767 0
-0.5238095238095238 -0.04761904761904767 0
-0.4285714285714286 -0.04761904761904767 0
-0.33333333333333337 -0.04761904761904767 0
-0.23809523809523814 -0.04761904761904767 0
-0.1428571428571429 -0.04761904761904767 0
-0.04761904761904767 -0.04761904761904767 0
0.04761904761904745 -0.04761904761904767 0
0.1428571428571428 -0.04761904761904767 0
0.23809523809523814 -0.04761904761904767 0
0.33333333333333326 -0.04761904761904767 0
0.4285714285714284 -0.04761904761904767 0
0.5238095238095237 -0.04761904761904767 0
0.6190476190476191 -0.04761904761904767 0
0.7142857142857142 -0.04761904761904767 0
0.8095238095238093 -0.04761904761904767 0
0.9047619047619047 -0.04761904761904767 0
1 -0.04761904761904767 0
-1 0.04761904761904745 0
-0.9047619047619048 0.04761904761904745 0
-0.8095238095238095 0.04761904761904745 0
-0.7142857142857143 0.04761904761904745 0
-0.6190476190476191 0.04761904761904745 0
-0.5238095238095238 0.04761904761904745 0
-0.4285714285714286 0.04761904761904745 0
-0.33333333333333337 0.04761904761904745 0
-0.23809523809523814 0.04761904761904745 0
-0.1428571428571429 0.04761904761904745 0
-0.04761904761904767 0.04761904761904745 0
[...]
POINT_DATA 484
SCALARS phi1 double 1
LOOKUP_TABLE default
1.243871246075836
1.1926037088594401
1.146966488405608
1.1076557381401737
1.0753654878753434
1.0497338980365511
1.0257898897723567
1.0088497300281039
1.0007253605088324
1
1
1
1
1.0007253605088324
1.0088497300281036
1.0257898897723567
1.0497338980365511
1.0753654878753434
1.1076557381401737
1.146966488405608
1.1926037088594401
1.243871246075836
1.16656756964578
1.1117408979255468
1.062636505706679
1.020081100682618
0.9849239311989448
0.9577409621994971
0.9331875493530621
0.9145336965285467
0.9055635546298907
0.9047619047619048
0.9047619047619048
0.9047619047619048
0.9047619047619048
0.9055635546298907
0.9145336965285467
0.933187549353062
0.9577409621994969
0.9849239311989448
1.020081100682618
1.062636505706679
1.1117408979255465
1.16656756964578
1.0921010492868466
1.0333308431593777
0.9803066614915306
0.934007633413149
0.8954775025384799
0.8657541483586644
0.8410985934955361
0.8204307258774008
0.8104196723620879
0.8095238095238095
0.8095238095238095
0.8095238095238095
0.8095238095238095
0.8104196723620879
0.8204307258774008
0.8410985934955361
0.8657541483586644
0.8954775025384799
0.934007633413149
0.9803066614915305
1.0333308431593775
1.0921010492868466
1.0210926004661685
0.9579760061180036
0.9005257061505801
0.8498915555218571
0.8073570179455208
0.7742581238021122
0.749105657658482
0.7266236022938085
0.7153008659285867
0.7142857142857143
0.7142857142857143
0.7142857142857143
0.7142857142857143
0.7153008659285867
0.7266236022938085
0.749105657658482
0.7742581238021122
0.8073570179455208
0.8498915555218571
0.90052570615058
0.9579760061180035
1.0210926004661685
0.9543144582207973
0.8864558729797513
0.8240343038250851
0.7683759773638513
0.7210487784251325
0.6837847824542885
0.657112721821428
0.6332438175192111
0.6202186725777119
0.6190476190476191
0.6190476190476191
0.6190476190476191
0.6190476190476191
0.6202186725777119
0.6332438175192111
0.6571127218214279
0.6837847824542884
0.7210487784251325
0.7683759773638513
0.824034303825085
0.8864558729797511
0.9543144582207973
0.8927164506050655
0.81977471951259
0.751837156498763
0.6903826609942535
0.637289507900474
0.5948009790910833
0.5651197859843738
0.5405128999490557
0.5251929782461805
0.5238095238095238
0.5238095238095238
0.5238095238095238
0.5238095238095238
0.5251929782461805
0.5405128999490557
0.5651197859843738
0.5948009790910833
0.637289507900474
0.6903826609942535
0.7518371564987628
0.8197747195125898
0.8927164506050655
0.8374424319090359
0.7592086382100504
0.6852928392103328
0.6172482354631077
0.5572298291197646
0.5080899234471443
0.4732295930363706
0.44847741728041296
0.43026121897434355
0.4285714285714286
0.4285714285714286
0.4285714285714286
0.4285714285714286
0.43026121897434355
0.44847741728041296
0.47322959303637047
0.5080899234471443
0.5572298291197646
0.6172482354631077
0.6852928392103327
0.7592086382100502
0.8374424319090359
0.7898212341483957
0.7063324369464664
0.6262060608321622
0.5509111900590645
0.4827140329541049
0.42504485111397317
0.3826930922754467
0.35648448144335887
0.3355031419773055
0.33333333333333337
0.33333333333333337
0.33333333333333337
0.33333333333333337
0.3355031419773055
0.3564844814433588
0.3826930922754466
0.4250448511139731
0.4827140329541049
0.5509111900590645
0.6262060608321621
0.7063324369464662
0.7898212341483957
0.7513094746047267
0.6629885792393935
0.5768729282450941
0.4941168728665622
0.41672674779758534
0.3482979617764584
0.29513106850089366
0.2644915456063048
0.24112359811756504
0.23809523809523814
0.23809523809523814
0.23809523809523814
0.23809523809523814
0.24112359811756504
0.2644915456063047
0.29513106850089355
0.34829796177645833
0.41672674779758534
0.4941168728665621
0.5768729282450938
0.6629885792393934
0.7513094746047267
0.723363574503947
0.6311440330781605
0.5399734341894664
0.4504890879252538
0.3639369679192387
0.28302014851584667
0.21422250554686323
0.17249860976925063
0.1478492828215241
0.1428571428571429
0.1428571428571429
0.1428571428571429
0.1428571428571429
0.1478492828215241
0.1724986097692506
0.2142225055468631
0.2830201485158466
0.3639369679192387
0.4504890879252537
0.5399734341894662
0.6311440330781604
0.723363574503947
0.7072371488946156
0.6125947390792903
0.5181706605818431
0.4241107664245093
0.33072592954848073
0.23880939747712937
0.1510655676858016
0.08217221383313479
0.05585624106528981
0.04761904761904767
0.04761904761904767
0.04761904761904767
0.04761904761904767
0.05585624106528981
0.08217221383313475
0.1510655676858014
0.23880939747712926
0.33072592954848073
0.42411076642450923
0.5181706605818429
0.6125947390792902
0.7072371488946156
0.7037432047296822
0.6085576618318451
0.5133916116518095
0.4182583598970896
0.3231868714881922
0.22825433566530165
0.13375694063057864
0.04268941499783133
0.036136694771764205
0.04761904761904745
0.04761904761904745
0.04761904761904745
0.04761904761904745
0.036136694771764205
0.04268941499783124
0.1337569406305784
0.22825433566530157
0.3231868714881922
0.4182583598970895
0.5133916116518092
0.608557661831845
0.7037432047296822
0.7130674590801231
0.6193166643729378
0.5261004180859601
0.43376348234905965
0.3430167006110707
0.25555966963859506
0.1763565200457068
0.12260949860690529
0.1281296306088184
0.1428571428571428
0.1428571428571428
0.1428571428571428
0.1428571428571428
0.1281296306088184
0.12260949860690526
0.17635652004570662
0.25555966963859494
0.3430167006110707
0.43376348234905954
0.5261004180859599
0.6193166643729376
0.7130674590801231
0.7347220520468429
0.644130750185832
0.5550972369550786
0.46851046005881625
0.3860204003197831
0.31090519022803165
0.24990581171227783
0.21537033619692708
0.22012256644587264
0.23809523809523814
0.23809523809523814
0.23809523809523814
0.23809523809523814
0.22012256644587264
0.21537033619692705
0.24990581171227771
0.31090519022803154
0.3860204003197831
0.46851046005881614
0.5550972369550784
0.6441307501858319
0.7347220520468429
0.7676642338275409
0.681466290779716
0.5980174116271735
0.5186462506551313
0.44553746374143127
0.38230082323326237
0.33458152498557664
0.3096389249556311
0.31296696375631233
0.33333333333333326
0.33333333333333326
0.33333333333333326
0.33333333333333326
0.31296696375631233
0.3096389249556311
0.3345815249855766
0.3823008232332623
0.44553746374143127
0.5186462506551311
0.5980174116271733
0.6814662907797158
0.7676642338275409
0.810518875536707
0.7294030279429383
0.6521175479256227
0.5801951439144314
0.5158838079455583
0.46237040470611074
0.4237655820910148
0.4043621341705248
0.4069161978910491
0.4285714285714284
0.4285714285714284
0.4285714285714284
0.4285714285714284
0.4069161978910491
0.4043621341705248
0.4237655820910147
0.4623704047061107
0.5158838079455583
0.5801951439144313
0.6521175479256225
0.7294030279429382
0.810518875536707
0.8618085105600383
0.7860037140146034
0.7148638734646972
0.6499226617793162
0.593219322487757
0.5473202466751219
0.5151216650824932
0.49928128026530816
0.5013520254058331
0.5207508068239416
0.5238095238095237
0.5238095238095237
0.5207508068239416
0.5013520254058331
0.49928128026530816
0.5151216650824931
0.5473202466751219
0.593219322487757
0.6499226617793161
0.7148638734646969
0.7860037140146034
0.8618085105600383
0.9201236654468227
0.8495383977704217
0.784183657331964
0.7254744083259562
0.6751465140355967
0.6351953268578895
0.6076709477002706
0.5943024883550042
0.596043206672231
0.6127643513981886
0.6190476190476191
0.6190476190476191
0.6127643513981886
0.596043206672231
0.5943024883550042
0.6076709477002705
0.6351953268578895
0.6751465140355967
0.7254744083259561
0.7841836573319639
0.8495383977704216
0.9201236654468227
0.9842163380710777
0.9185693929677173
0.8584860213406393
0.8052126163608229
0.7601822517167601
0.7249326476803528
0.7009409540679518
0.6893835565747819
0.6908847549561803
0.7053611775219758
0.7142857142857142
0.7142857142857142
0.7053611775219758
0.6908847549561803
0.6893835565747818
0.7009409540679518
0.7249326476803528
0.7601822517167601
0.8052126163608228
0.8584860213406392
0.9185693929677173
0.9842163380710777
1.0530321125710973
0.9919498776031919
0.9365858630244144
0.8880102406653586
0.84739122358275
0.8159179944410793
0.7946779543120577
0.7845027202346732
0.7858222283766017
0.7985795018250185
0.8095238095238093
0.8095238095238093
0.7985795018250185
0.7858222283766017
0.7845027202346732
0.7946779543120577
0.8159179944410792
0.84739122358275
0.8880102406653586
0.9365858630244143
0.9919498776031918
1.0530321125710973
1.125705134417986
1.068784346454445
1.0176092070958551
0.9730866390386911
0.936166280825227
0.907776180124716
0.8887341957068292
0.8796476212692612
0.8808246103282058
0.8922245458875039
0.9047619047619047
0.9047619047619047
0.8922245458875039
0.8808246103282058
0.8796476212692612
0.8887341957068292
0.907776180124716
0.936166280825227
0.9730866390386911
1.017609207095855
1.0687843464544449
1.125705134417986
1.2015357084886178
1.1483797230638844
1.1009107627253372
1.059893209806462
1.0261010254708678
1.000266765578088
0.9830180464960414
0.9748107235370868
0.9758729442289423
0.9861747560155812
1
1
0.9861747560155814
0.9758729442289423
0.9748107235370868
0.9830180464960414
1.000266765578088
1.0261010254708678
1.059893209806462
1.1009107627253372
1.1483797230638844
1.2015357084886178

SCALARS phi2 double 1
LOOKUP_TABLE default
1.243871246075836
1.1926037088594401
1.146966488405608
1.1076557381401737
1.0753654878753434
1.0507431752626604
1.034336549570739
1.0265396070117836
1.0275483547352275
1.0373371040521975
1.0556616423536889
1.0556616423536889
1.0373371040521975
1.0275483547352275
1.0265396070117836
1.034336549570739
1.0507431752626604
1.0753654878753434
1.1076557381401737
1.146966488405608
1.1926037088594401
1.243871246075836
1.16656756964578
1.1117408979255468
1.062636505706679
1.020081100682618
0.9849239311989448
0.9579798735339207
0.9399554859209613
0.9313687682647059
0.9324804765002223
0.9432563199779836
0.9633720573443555
0.9633720573443556
0.9432563199779838
0.9324804765002223
0.9313687682647059
0.9399554859209613
0.9579798735339207
0.9849239311989448
1.020081100682618
1.062636505706679
1.1117408979255465
1.16656756964578
1.0921010492868466
1.0333308431593777
0.9803066614915306
0.934007633413149
0.8954775025384799
0.8657541483586644
0.8457665888512504
0.8362132442165008
0.837451279990813
0.8494335126910039
0.8717170000499392
0.8717170000499394
0.849433512691004
0.837451279990813
0.8362132442165008
0.8457665888512504
0.8657541483586644
0.8954775025384799
0.934007633413149
0.9803066614915305
1.0333308431593775
1.0921010492868466
1.0210926004661685
0.9579760061180036
0.9005257061505801
0.8498915555218571
0.8073570179455208
0.7742581238021122
0.7518420842772842
0.7410789341739622
0.742475617937439
0.7559647408152768
0.7809199223027906
0.7809199223027907
0.7559647408152769
0.742475617937439
0.7410789341739622
0.7518420842772842
0.7742581238021122
0.8073570179455208
0.8498915555218571
0.90052570615058
0.9579760061180035
1.0210926004661685
0.9543144582207973
0.8864558729797513
0.8240343038250851
0.7683759773638513
0.7210487784251325
0.6837847824542885
0.6582951512299803
0.6459752109167252
0.6475770453575956
0.6629997555040276
0.6913189650891174
0.6913189650891175
0.6629997555040276
0.6475770453575956
0.645975210916725
0.6582951512299802
0.6837847824542884
0.7210487784251325
0.7683759773638513
0.824034303825085
0.8864558729797511
0.9543144582207973
0.8927164506050655
0.81977471951259
0.751837156498763
0.6903826609942535
0.637289507900474
0.5948009790910833
0.5653132601881502
0.5509179150568261
0.552795265614428
0.5707847683760079
0.6034471704329559
0.603447170432956
0.5707847683760079
0.552795265614428
0.550917915056826
0.5653132601881502
0.5948009790910833
0.637289507900474
0.6903826609942535
0.7518371564987628
0.8197747195125898
0.8927164506050655
0.8374424319090359
0.7592086382100504
0.6852928392103328
0.6172482354631077
0.5572298291197646
0.5080899234471443
0.4732295930363706
0.45593608621315973
0.45820276217689887
0.47975245428331753
0.5181849603031282
0.5181849603031283
0.4797524542833176
0.45820276217689887
0.45593608621315973
0.47322959303637047
0.5080899234471443
0.5572298291197646
0.6172482354631077
0.6852928392103327
0.7592086382100502
0.8374424319090359
0.7898212341483957
0.7063324369464664
0.6262060608321622
0.5509111900590645
0.4827140329541049
0.42504485111397317
0.3826930922754467
0.3610892823961249
0.36394714783401505
0.3907303066577269
0.43706224755099726
0.43706224755099743
0.39073030665772696
0.36394714783401505
0.3610892823961249
0.3826930922754466
0.4250448511139731
0.4827140329541049
0.5509111900590645
0.6262060608321621
0.7063324369464662
0.7898212341483957
0.7513094746047267
0.6629885792393935
0.5768729282450941
0.4941168728665622
0.41672674779758534
0.3482979617764584
0.29513106850089366
0.266521696265959
0.27038097406372746
0.3054807968759689
0.36286602617696917
0.36286602617696934
0.30548079687596896
0.27038097406372746
0.266521696265959
0.29513106850089355
0.34829796177645833
0.41672674779758534
0.4941168728665621
0.5768729282450938
0.6629885792393934
0.7513094746047267
0.723363574503947
0.6311440330781605
0.5399734341894664
0.4504890879252538
0.3639369679192387
0.28302014851584667
0.21422250554686323
0.17269264277548357
0.17859116838171676
0.22827056653952046
0.3007668320173645
0.30076683201736465
0.22827056653952052
0.17859116838171676
0.17269264277548355
0.2142225055468631
0.2830201485158466
0.3639369679192387
0.4504890879252537
0.5399734341894662
0.6311440330781604
0.723363574503947
0.7072371488946156
0.6125947390792903
0.5181706605818431
0.4241107664245093
0.33072592954848073
0.23880939747712937
0.1510655676858016
0.08217221383313479
0.09393790119756963
0.1704023926056535
0.2595962463118818
0.259596246311882
0.1704023926056536
0.09393790119756963
0.08217221383313475
0.1510655676858014
0.23880939747712926
0.33072592954848073
0.42411076642450923
0.5181706605818429
0.6125947390792902
0.7072371488946156
0.7037432047296822
0.6085576618318451
0.5133916116518095
0.4182583598970896
0.3231868714881922
0.22825433566530165
0.13375694063057864
0.04268941499783133
0.06240547017708458
0.1552645768755704
0.24992063645453097
0.2499206364545312
0.15526457687557052
0.06240547017708458
0.04268941499783124
0.1337569406305784
0.22825433566530157
0.3231868714881922
0.4182583598970895
0.5133916116518092
0.608557661831845
0.7037432047296822
0.7130674590801231
0.6193166643729378
0.5261004180859601
0.43376348234905965
0.3430167006110707
0.25555966963859506
0.1763565200457068
0.12260949860690529
0.13078664191652997
0.19317813496389688
0.2750836736733343
0.2750836736733345
0.19317813496389696
0.13078664191652997
0.12260949860690526
0.17635652004570662
0.25555966963859494
0.3430167006110707
0.43376348234905954
0.5261004180859599
0.6193166643729376
0.7130674590801231
0.7347220520468429
0.644130750185832
0.5550972369550786
0.46851046005881625
0.3860204003197831
0.31090519022803165
0.24990581171227783
0.21537033619692708
0.22012823142146787
0.2620478666065996
0.32714266014471144
0.3271426601447116
0.26204786660659973
0.22012823142146787
0.21537033619692705
0.24990581171227771
0.31090519022803154
0.3860204003197831
0.46851046005881614
0.5550972369550784
0.6441307501858319
0.7347220520468429
0.7676642338275409
0.681466290779716
0.5980174116271735
0.5186462506551313
0.44553746374143127
0.38230082323326237
0.33458152498557664
0.3096389249556311
0.31296696375631233
0.3437454967372981
0.39561875868146057
0.39561875868146074
0.34374549673729815
0.31296696375631233
0.3096389249556311
0.3345815249855766
0.3823008232332623
0.44553746374143127
0.5186462506551311
0.5980174116271733
0.6814662907797158
0.7676642338275409
0.810518875536707
0.7294030279429383
0.6521175479256227
0.5801951439144314
0.5158838079455583
0.46237040470611074
0.4237655820910148
0.4043621341705248
0.4069161978910491
0.4310376297151263
0.4734413099043241
0.4734413099043242
0.4310376297151264
0.4069161978910491
0.4043621341705248
0.4237655820910147
0.4623704047061107
0.5158838079455583
0.5801951439144313
0.6521175479256225
0.7294030279429382
0.810518875536707
0.8618085105600383
0.7860037140146034
0.7148638734646972
0.6499226617793162
0.593219322487757
0.5473202466751219
0.5151216650824932
0.49928128026530816
0.5013520254058331
0.5211204270635129
0.5567043516951757
0.5567043516951758
0.5211204270635129
0.5013520254058331
0.49928128026530816
0.5151216650824931
0.5473202466751219
0.593219322487757
0.6499226617793161
0.7148638734646969
0.7860037140146034
0.8618085105600383
0.9201236654468227
0.8495383977704217
0.784183657331964
0.7254744083259562
0.6751465140355967
0.6351953268578895
0.6076709477002706
0.5943024883550042
0.596043206672231
0.6127643513981886
0.6432988310559337
0.6432988310559338
0.6127643513981886
0.596043206672231
0.5943024883550042
0.6076709477002705
0.6351953268578895
0.6751465140355967
0.7254744083259561
0.7841836573319639
0.8495383977704216
0.9201236654468227
0.9842163380710777
0.9185693929677173
0.8584860213406393
0.8052126163608229
0.7601822517167601
0.7249326476803528
0.7009409540679518
0.6893835565747819
0.6908847549561803
0.7053611775219758
0.7320434593988776
0.7320434593988777
0.7053611775219758
0.6908847549561803
0.6893835565747818
0.7009409540679518
0.7249326476803528
0.7601822517167601
0.8052126163608228
0.8584860213406392
0.9185693929677173
0.9842163380710777
1.0530321125710973
0.9919498776031919
0.9365858630244144
0.8880102406653586
0.84739122358275
0.8159179944410793
0.7946779543120577
0.7845027202346732
0.7858222283766017
0.7985795018250185
0.8222423343690001
0.8222423343690002
0.7985795018250185
0.7858222283766017
0.7845027202346732
0.7946779543120577
0.8159179944410792
0.84739122358275
0.8880102406653586
0.9365858630244143
0.9919498776031918
1.0530321125710973
1.125705134417986
1.068784346454445
1.0176092070958551
0.9730866390386911
0.936166280825227
0.907776180124716
0.8887341957068292
0.8796476212692612
0.8808246103282058
0.8922245458875039
0.9134647644970496
0.9134647644970497
0.8922245458875039
0.8808246103282058
0.8796476212692612
0.8887341957068292
0.907776180124716
0.936166280825227
0.9730866390386911
1.017609207095855
1.0687843464544449
1.125705134417986
1.2015357084886178
1.1483797230638844
1.1009107627253372
1.059893209806462
1.0261010254708678
1.000266765578088
0.9830180464960414
0.9748107235370868
0.9758729442289423
0.9861747560155812
1.005432188213546
1.005432188213546
0.9861747560155814
0.9758729442289423
0.9748107235370868
0.9830180464960414
1.000266765578088
1.0261010254708678
1.059893209806462
1.1009107627253372
1.1483797230638844
1.2015357084886178

SCALARS phi3 double 1
LOOKUP_TABLE default
-1.1729810623710846
-1.148331629504178
-1.1236821966372708
-1.0990327637703634
-1.0743833309034572
-1.0497338980365511
-1.0257898897723567
-1.0088497300281039
-1.0007253605088324
-1
-1
-1
-1
-1.0007253605088324
-1.0088497300281036
-1.0257898897723567
-1.0497338980365511
-1.0743833309034578
-1.0990327637703645
-1.1236821966372712
-1.1483316295041779
-1.1729810623710848
-1.0809881265340302
-1.056338693667124
-1.0316892608002175
-1.007039827933311
-0.9823903950664047
-0.9577409621994971
-0.9331875493530621
-0.9145336965285467
-0.9055635546298907
-0.9047619047619048
-0.9047619047619048
-0.9047619047619048
-0.9047619047619048
-0.9055635546298907
-0.9145336965285467
-0.933187549353062
-0.9577409621994969
-0.9823903950664037
-1.0070398279333104
-1.031689260800217
-1.056338693667124
-1.0809881265340306
-0.9889951906969761
-0.9643457578300687
-0.9396963249631632
-0.9150468920962558
-0.8903974592293487
-0.8657480263624431
-0.8410985934955361
-0.8204307258774008
-0.8104196723620879
-0.8095238095238095
-0.8095238095238095
-0.8095238095238095
-0.8095238095238095
-0.8104196723620879
-0.8204307258774008
-0.8410985934955361
-0.8657480263624429
-0.8903974592293497
-0.9150468920962563
-0.939696324963163
-0.9643457578300698
-0.9889951906969766
-0.8970022548599218
-0.8723528219930153
-0.847703389126109
-0.8230539562592025
-0.7984045233922952
-0.7737550905253888
-0.749105657658482
-0.7266236022938085
-0.7153008659285867
-0.7142857142857143
-0.7142857142857143
-0.7142857142857143
-0.7142857142857143