# vtk DataFile Version 4.1
Header:
ASCII

DATASET UNSTRUCTURED_GRID
POINTS 676 double
-1 -1 0
-0.92 -1 0
-0.84 -1 0
-0.76 -1 0
-0.6799999999999999 -1 0
-0.6 -1 0
-0.52 -1 0
-0.43999999999999995 -1 0
-0.36 -1 0
-0.28 -1 0
-0.19999999999999996 -1 0
-0.12 -1 0
-0.040000000000000036 -1 0
0.040000000000000036 -1 0
0.1200000000000001 -1 0
0.19999999999999996 -1 0
0.28 -1 0
0.3600000000000001 -1 0
0.43999999999999995 -1 0
0.52 -1 0
0.6000000000000001 -1 0
0.6799999999999999 -1 0
0.76 -1 0
0.8400000000000001 -1 0
0.9199999999999999 -1 0
1 -1 0
-1 -0.92 0
-0.92 -0.92 0
-0.84 -0.92 0
-0.76 -0.92 0
-0.6799999999999999 -0.92 0
-0.6 -0.92 0
-0.52 -0.92 0
-0.43999999999999995 -0.92 0
-0.36 -0.92 0
-0.28 -0.92 0
-0.19999999999999996 -0.92 0
-0.12 -0.92 0
-0.040000000000000036 -0.92 0
0.040000000000000036 -0.92 0
0.1200000000000001 -0.92 0
0.19999999999999996 -0.92 0
0.28 -0.92 0
0.3600000000000001 -0.92 0
0.43999999999999995 -0.92 0
0.52 -0.92 0
0.6000000000000001 -0.92 0
0.6799999999999999 -0.92 0
0.76 -0.92 0
0.8400000000000001 -0.92 0
0.9199999999999999 -0.92 0
1 -0.92 0
-1 -0.84 0
-0.92 -0.84 0
-0.84 -0.84 0
-0.76 -0.84 0
-0.6799999999999999 -0.84 0
-0.6 -0.84 0
-0.52 -0.84 0
-0.43999999999999995 -0.84 0
-0.36 -0.84 0
-0.28 -0.84 0
-0.19999999999999996 -0.84 0
-0.12 -0.84 0
-0.040000000000000036 -0.84 0
0.040000000000000036 -0.84 0
0.1200000000000001 -0.84 0
0.19999999999999996 -0.84 0
0.28 -0.84 0
0.3600000000000001 -0.84 0
0.43999999999999995 -0.84 0
0.52 -0.84 0
0.6000000000000001 -0.84 0
0.6799999999999999 -0.84 0
0.76 -0.84 0
0.8400000000000001 -0.84 0
0.9199999999999999 -0.84 0
1 -0.84 0
-1 -0.76 0
-0.92 -0.76 0
-0.84 -0.76 0
-0.76 -0.76 0
-0.6799999999999999 -0.76 0
-0.6 -0.76 0
-0.52 -0.76 0
-0.43999999999999995 -0.76 0
-0.36 -0.76 0
-0.28 -0.76 0
-0.19999999999999996 -0.76 0
-0.12 -0.76 0
-0.040000000000000036 -0.76 0
0.040000000000000036 -0.76 0
0.1200000000000001 -0.76 0
0.19999999999999996 -0.76 0
0.28 -0.76 0
0.3600000000000001 -0.76 0
0.43999999999999995 -0.76 0
0.52 -0.76 0
0.6000000000000001 -0.76 0
0.6799999999999999 -0.76 0
0.76 -0.76 0
0.8400000000000001 -0.76 0
0.9199999999999999 -0.76 0
1 -0.76 0
-1 -0.6799999999999999 0
-0.92 -0.6799999999999999 0
-0.84 -0.6799999999999999 0
-0.76 -0.6799999999999999 0
-0.6799999999999999 -0.6799999999999999 0
-0.6 -0.6799999999999999 0
-0.52 -0.6799999999999999 0
-0.43999999999999995 -0.6799999999999999 0
-0.36 -0.6799999999999999 0
-0.28 -0.6799999999999999 0
-0.19999999999999996 -0.6799999999999999 0
-0.12 -0.6799999999999999 0
-0.040000000000000036 -0.6799999999999999 0
0.040000000000000036 -0.6799999999999999 0
0.1200000000000001 -0.6799999999999999 0
0.19999999999999996 -0.6799999999999999 0
0.28 -0.6799999999999999 0
0.3600000000000001 -0.6799999999999999 0
0.43999999999999995 -0.6799999999999999 0
0.52 -0.6799999999999999 0
0.6000000000000001 -0.6799999999999999 0
0.6799999999999999 -0.6799999999999999 0
0.76 -0.6799999999999999 0
0.8400000000000001 -0.6799999999999999 0
0.9199999999999999 -0.6799999999999999 0
1 -0.6799999999999999 0
-1 -0.6 0
-0.92 -0.6 0
-0.84 -0.6 0
-0.76 -0.6 0
-0.6799999999999999 -0.6 0
-0.6 -0.6 0
-0.52 -0.6 0
-0.43999999999999995 -0.6 0
-0.36 -0.6 0
-0.28 -0.6 0
-0.19999999999999996 -0.6 0
-0.12 -0.6 0
-0.040000000000000036 -0.6 0
0.040000000000000036 -0.6 0
0.1200000000000001 -0.6 0
0.19999999999999996 -0.6 0
0.28 -0.6 0
0.3600000000000001 -0.6 0
0.43999999999999995 -0.6 0
0.52 -0.6 0
0.6000000000000001 -0.6 0
0.6799999999999999 -0.6 0
0.76 -0.6 0
0.8400000000000001 -0.6 0
0.9199999999999999 -0.6 0
1 -0.6 0
-1 -0.52 0
-0.92 -0.52 0
-0.84 -0.52 0
-0.76 -0.52 0
-0.6799999999999999 -0.52 0
-0.6 -0.52 0
-0.52 -0.52 0
-0.43999999999999995 -0.52 0
-0.36 -0.52 0
-0.28 -0.52 0
-0.19999999999999996 -0.52 0
-0.12 -0.52 0
-0.040000000000000036 -0.52 0
0.040000000000000036 -0.52 0
0.1200000000000001 -0.52 0
0.19999999999999996 -0.52 0
0.28 -0.52 0
0.3600000000000001 -0.52 0
0.43999999999999995 -0.52 0
0.52 -0.52 0
0.6000000000000001 -0.52 0
0.6799999999999999 -0.52 0
0.76 -0.52 0
0.8400000000000001 -0.52 0
0.9199999999999999 -0.52 0
1 -0.52 0
-1 -0.43999999999999995 0
-0.92 -0.43999999999999995 0
-0.84 -0.43999999999999995 0
-0.76 -0.43999999999999995 0
-0.6799999999999999 -0.43999999999999995 0
-0.6 -0.43999999999999995 0
-0.52 -0.43999999999999995 0
-0.43999999999999995 -0.43999999999999995 0
-0.36 -0.43999999999999995 0
-0.28 -0.43999999999999995 0
-0.19999999999999996 -0.43999999999999995 0
-0.12 -0.43999999999999995 0
-0.040000000000000036 -0.43999999999999995 0
0.040000000000000036 -0.43999999999999995 0
0.1200000000000001 -0.43999999999999995 0
0.19999999999999996 -0.43999999999999995 0
0.28 -0.43999999999999995 0
0.3600000000000001 -0.43999999999999995 0
0.43999999999999995 -0.43999999999999995 0
0.52 -0.43999999999999995 0
0.6000000000000001 -0.43999999999999995 0
0.6799999999999999 -0.43999999999999995 0
0.76 -0.43999999999999995 0
0.8400000000000001 -0.43999999999999995 0
0.9199999999999999 -0.43999999999999995 0
1 -0.43999999999999995 0
-1 -0.36 0
-0.92 -0.36 0
-0.84 -0.36 0
-0.76 -0.36 0
-0.6799999999999999 -0.36 0
-0.6 -0.36 0
-0.52 -0.36 0
-0.43999999999999995 -0.36 0
-0.36 -0.36 0
-0.28 -0.36 0
-0.19999999999999996 -0.36 0
-0.12 -0.36 0
-0.040000000000000036 -0.36 0
0.040000000000000036 -0.36 0
0.1200000000000001 -0.36 0
0.19999999999999996 -0.36 0
0.28 -0.36 0
0.3600000000000001 -0.36 0
0.43999999999999995 -0.36 0
0.52 -0.36 0
0.6000000000000001 -0.36 0
0.6799999999999999 -0.36 0
0.76 -0.36 0
0.8400000000000001 -0.36 0
0.9199999999999999 -0.36 0
1 -0.36 0
-1 -0.28 0
-0.92 -0.28 0
-0.84 -0.28 0
-0.76 -0.28 0
-0.6799999999999999 -0.28 0
-0.6 -0.28 0
-0.52 -0.28 0
-0.43999999999999995 -0.28 0
-0.36 -0.28 0
-0.28 -0.28 0
-0.19999999999999996 -0.28 0
-0.12 -0.28 0
-0.040000000000000036 -0.28 0
0.040000000000000036 -0.28 0
0.1200000000000001 -0.28 0
0.19999999999999996 -0.28 0
0.28 -0.28 0
0.3600000000000001 -0.28 0
0.43999999999999995 -0.28 0
0.52 -0.28 0
0.6000000000000001 -0.28 0
0.6799999999999999 -0.28 0
0.76 -0.28 0
0.8400000000000001 -0.28 0
0.9199999999999999 -0.28 0
1 -0.28 0
-1 -0.19999999999999996 0
-0.92 -0.19999999999999996 0
-0.84 -0.19999999999999996 0
-0.76 -0.19999999999999996 0
-0.6799999999999999 -0.19999999999999996 0
-0.6 -0.19999999999999996 0
-0.52 -0.19999999999999996 0
-0.43999999999999995 -0.19999999999999996 0
-0.36 -0.19999999999999996 0
-0.28 -0.19999999999999996 0
-0.19999999999999996 -0.19999999999999996 0
-0.12 -0.19999999999999996 0
-0.040000000000000036 -0.19999999999999996 0
0.040000000000000036 -0.19999999999999996 0
0.1200000000000001 -0.19999999999999996 0
0.19999999999999996 -0.19999999999999996 0
0.28 -0.19999999999999996 0
0.3600000000000001 -0.19999999999999996 0
0.43999999999999995 -0.19999999999999996 0
0.52 -0.19999999999999996 0
0.6000000000000001 -0.19999999999999996 0
0.6799999999999999 -0.19999999999999996 0
0.76 -0.19999999999999996 0
0.8400000000000001 -0.19999999999999996 0
0.9199999999999999 -0.19999999999999996 0
1 -0.19999999999999996 0
-1 -0.12 0
-0.92 -0.12 0
-0.84 -0.12 0
-0.76 -0.12 0
-0.6799999999999999 -0.12 0
-0.6 -0.12 0
-0.52 -0.12 0
-0.43999999999999995 -0.12 0
-0.36 -0.12 0
-0.28 -0.12 0
-0.19999999999999996 -0.12 0
-0.12 -0.12 0
-0.040000000000000036 -0.12 0
0.040000000000000036 -0.12 0
0.1200000000000001 -0.12 0
0.19999999999999996 -0.12 0
0.28 -0.12 0
0.3600000000000001 -0.12 0
0.43999999999999995 -0.12 0
0.52 -0.12 0
0.6000000000000001 -0.12 0
0.6799999999999999 -0.12 0
0.76 -0.12 0
0.8400000000000001 -0.12 0
0.9199999999999999 -0.12 0
1 -0.12 0
-1 -0.040000000000000036 0
-0.92 -0.040000000000000036 0
-0.84 -0.040000000000000036 0
-0.76 -0.040000000000000036 0
-0.6799999999999999 -0.040000000000000036 0
-0.6 -0.040000000000000036 0
-0.52 -0.040000000000000036 0
-0.43999999999999995 -0.040000000000000036 0
-0.36 -0.040000000000000036 0
-0.28 -0.040000000000000036 0
-0.19999999999999996 -0.040000000000000036 0
-0.12 -0.040000000000000036 0
-0.040000000000000036 -0.040000000000000036 0
0.040000000000000036 -0.040000000000000036 0
0.1200000000000001 -0.040000000000000036 0
0.19999999999999996 -0.040000000000000036 0
0.28 -0.040000000000000036 0
0.3600000000000001 -0.040000000000000036 0
0.43999999999999995 -0.040000000000000036 0
0.52 -0.040000000000000036 0
0.6000000000000001 -0.040000000000000036 0
0.6799999999999999 -0.040000000000000036 0
0.76 -0.040000000000000036 0
0.8400000000000001 -0.040000000000000036 0
0.9199999999999999 -0.040000000000000036 0
1 -0.040000000000000036 0
-1 0.040000000000000036 0
-0.92 0.040000000000000036 0
-0.84 0.040000000000000036 0
-0.76 0.040000000000000036 0
-0.6799999999999999 0.040000000000000036 0
-0.6 0.040000000000000036 0
-0.52 0.040000000000000036 0
-0.43999999999999995 0.040000000000000036 0
-0.36 0.040000000000000036 0
-0.28 0.040000000000000036 0
-0.19999999999999996 0.040000000000000036 0
-0.12 0.040000000000000036 0
-0.040000000000000036 0.040000000000000036 0
0.040000000000000036 0.040000000000000036 0
0.1200000000000001 0.040000000000000036 0
0.19999999999999996 0.040000000000000036 0
0.28 0.040000000000000036 0
0.3600000000000001 0.040000000000000036 0
0.43999999999999995 0.040000000000000036 0
0.52 0.040000000000000036 0
0.6000000000000001 0.040000000000000036 0
0.6799999999999999 0.040000000000000036 0
0.76 0.040000000000000036 0
0.8400000000000001 0.040000000000000036 0
0.9199999999999999 0.040000000000000036 0
1 0.040000000000000036 0
-1 0.1200000000000001 0
-0.92 0.1200000000000001 0
-0.84 0.1200000000000001 0
-0.76 0.1200000000000001 0
-0.6799999999999999 0.1200000000000001 0
-0.6 0.1200000000000001 0
-0.52 0.1200000000000001 0
-0.43999999999999995 0.1200000000000001 0
-0.36 0.1200000000000001 0
-0.28 0.1200000000000001 0
-0.19999999999999996 0.1200000000000001 0
-0.12 0.1200000000000001 0
-0.040000000000000036 0.1200000000000001 0
0.040000000000000036 0.1200000000000001 0
0.1200000000000001 0.1200000000000001 0
0.19999999999999996 0.1200000000000001 0
0.28 0.1200000000000001 0
[...]
POINT_DATA 676
SCALARS phi1 double 1
LOOKUP_TABLE default
1.2401434992741867
1.2001434992741868
1.1609157175503755
1.1256909506947848
1.095187166513904
1.0698082739058334
1.0487479207218748
1.0283968105745953
1.012719112093773
1.0031948963187562
1
1
1
1
1
1
1.0031948963187562
1.012719112093773
1.0283968105745953
1.0487479207218748
1.0698082739058334
1.095187166513904
1.1256909506947848
1.1609157175503755
1.2001434992741866
1.2401434992741867
1.171421795944093
1.1308614669714314
1.0908639688493993
1.0532991083991707
1.0206340308725323
0.9933522226258611
0.9714738546187495
0.950789145920377
0.9338094023943002
0.9234717104492156
0.92
0.92
0.92
0.92
0.92
0.92
0.9234717104492156
0.9338094023943002
0.950789145920377
0.9714738546187495
0.9933522226258612
1.0206340308725323
1.0532991083991707
1.0908639688493993
1.1308614669714314
1.171421795944093
1.104213710878127
1.0616021566351586
1.0215794346686764
0.9820885433772496
0.9469702847784996
0.9175006994406587
0.8941997885156239
0.8734942649074222
0.8551023330572779
0.8438009243891593
0.84
0.84
0.84
0.84
0.84
0.84
0.8438009243891593
0.855102333057278
0.8734942649074222
0.8941997885156239
0.9175006994406587
0.9469702847784996
0.9820885433772496
1.0215794346686764
1.0616021566351586
1.104213710878127
1.038819914407499
0.9934072851810478
0.9522974023659214
0.9122974023659215
0.8744207314169951
0.8424170159442754
0.8170197316913973
0.7962201988042968
0.776659513557904
0.764198926981712
0.76
0.76
0.76
0.76
0.76
0.76
0.764198926981712
0.776659513557904
0.7962201988042968
0.8170197316913973
0.8424170159442755
0.8744207314169951
0.9122974023659214
0.9522974023659214
0.9934072851810478
1.038819914407499
0.9756053043357048
0.9271013588217522
0.8831920228411911
0.8430153700631662
0.8032873152304798
0.768326313509317
0.7403918808654254
0.7189461327011714
0.6985699678629191
0.6846897107449476
0.6799999999999999
0.6799999999999999
0.6799999999999999
0.6799999999999999
0.6799999999999999
0.6799999999999999
0.6846897107449476
0.6985699678629191
0.7189461327011712
0.7403918808654254
0.768326313509317
0.8032873152304798
0.8430153700631662
0.8831920228411912
0.9271013588217522
0.9756053043357048
0.9150216418895908
0.863119820654988
0.8157738929928284
0.773733337760411
0.733733337760411
0.6955459864805325
0.6645592769120013
0.6416720665980459
0.6209669878504009
0.6053098380168622
0.6
0.6
0.6
0.6
0.6
0.6
0.6053098380168622
0.6209669878504009
0.6416720665980459
0.6645592769120013
0.6955459864805325
0.733733337760411
0.7737333377604112
0.8157738929928285
0.863119820654988
0.9150216418895908
0.8574990466559905
0.8020191519445521
0.7508301670597916
0.705022807750367
0.6644513054576561
0.6245343181823851
0.5898287275202538
0.5643980004949205
0.5436924768867188
0.5261178575186363
0.52
0.52
0.52
0.52
0.52
0.52
0.5261178575186363
0.5436924768867188
0.5643980004949205
0.5898287275202538
0.6245343181823853
0.6644513054576561
0.705022807750367
0.7508301670597918
0.8020191519445521
0.8574990466559906
0.8009305041610667
0.744361961666143
0.6890608355184571
0.638839615808671
0.595169273154901
0.5551692731549009
0.5166786458588368
0.48745424021865524
0.46641841078359325
0.44721359549995787
0.43999999999999995
0.43999999999999995
0.43999999999999995
0.43999999999999995
0.43999999999999995
0.43999999999999995
0.44721359549995787
0.4664184107835933
0.48745424021865524
0.5166786458588368
0.5551692731549009
0.595169273154901
0.638839615808671
0.6890608355184572
0.744361961666143
0.8009305041610668
0.744885842809793
0.6877934191712192
0.6312248766762955
0.576172673774911
0.5273387617899011
0.4858872408521458
0.44588724085214587
0.4116679870787941
0.3891443446804679
0.3687817782917155
0.36
0.36
0.36
0.36
0.36
0.36
0.3687817782917155
0.3891443446804679
0.4116679870787941
0.44588724085214587
0.48588724085214585
0.5273387617899011
0.576172673774911
0.6312248766762955
0.6877934191712192
0.744885842809793
0.6929647217556104
0.631842570406578
0.5746563341813716
0.5180877916864478
0.46340593971642813
0.4167208713823222
0.3766052085493908
0.3378304705971116
0.31187027857734245
0.2911647549691408
0.28
0.28
0.28
0.28
0.28
0.28
0.2911647549691408
0.3118702785773425
0.3378304705971116
0.3766052085493908
0.4167208713823223
0.46340593971642813
0.5180877916864478
0.5746563341813716
0.6318425704065779
0.6929647217556104
0.646796175295746
0.5808357948313502
0.5188401957612065
0.46151924919152393
0.4049507066966001
0.3508777278825226
0.30732317624663563
0.2673231762466356
0.23461273486929607
0.21389068886601525
0.19999999999999996
0.19999999999999996
0.19999999999999996
0.19999999999999996
0.19999999999999996
0.19999999999999996
0.21389068886601525
0.23461273486929612
0.2673231762466356
0.30732317624663563
0.35087772788252264
0.4049507066966001
0.46151924919152393
0.5188401957612067
0.5808357948313501
0.646796175295746
0.606227740398644
0.5369457080958889
0.46919115029687214
0.40591287697862327
0.3483821642016763
0.29181362170675257
0.23892529142712665
0.1980411439438805
0.15906612034374354
0.13661662276288983
0.12
0.12
0.12
0.12
0.12
0.12
0.13661662276288983
0.1590661203437436
0.1980411439438805
0.23892529142712665
0.2918136217067526
0.34838216420167634
0.40591287697862327
0.4691911502968722
0.5369457080958888
0.606227740398644
0.5663435612695105
0.4969457080958889
0.42766367579313375
0.3584835428251036
0.2931473667911734
0.23524507921182877
0.17867653671690503
0.12875911164112544
0.08875911164112547
0.05934255665976442
0.040000000000000036
0.040000000000000036
0.040000000000000036
0.040000000000000036
0.040000000000000036
0.040000000000000036
0.05934255665976442
0.08875911164112553
0.12875911164112544
0.17867653671690503
0.23524507921182883
0.2931473667911734
0.3584835428251036
0.42766367579313386
0.4969457080958888
0.5663435612695105
0.5323850201783064
0.45875782052234987
0.38766437297045675
0.3183816434903787
0.24909961118762353
0.18084660244564882
0.12210799422198114
0.0655394517270573
0.01947707933837031
0.01793150944336111
0.038637033051562776
0.040000000000000036
0.040000000000000036
0.040000000000000036
0.040000000000000036
0.038637033051562776
0.01793150944336111
0.019477079338370364
0.0655394517270573
0.12210799422198114
0.1808466024456489
0.2490996111876235
0.3183816434903787
0.38766437297045686
0.45875782052234976
0.5323850201783064
0.5084872526116012
0.4312163241451331
0.35464411230048826
0.2799953116921107
0.20909961118762346
0.13981757888486843
0.07053554658211339
0.008970909232133431
0.047597633262790325
0.08980495296438482
0.11591109915468831
0.1200000000000001
0.1200000000000001
0.1200000000000001
0.1200000000000001
0.1159110991546883
0.08980495296438483
0.047597633262790234
0.008970909232133428
0.07053554658211339
0.13981757888486854
0.20909961118762346
0.2799953116921107
0.3546441123004883
0.43121632414513295
0.5084872526116012
0.4877817290033996
0.4105076629002742
0.3332335967971487
0.2559595306940233
0.17868546459089774
0.10166617553890739
0.030535546582113444
0.03874648572064168
0.10416617575771404
0.1590869852671398
0.19318516525781362
0.19999999999999996
0.19999999999999996
0.19999999999999996
0.19999999999999996
0.19318516525781362
0.1590869852671398
0.10416617575771397
0.038746485720641696
0.030535546582113444
0.10166617553890749
0.17868546459089774
0.2559595306940233
0.33323359679714876
0.4105076629002741
0.4877817290033996
0.4728407949863646
0.3933757113818017
0.31418224521277416
0.2355345327308524
0.15797994098269605
0.08070587487957064
0.003431808776445213
0.0738422573266803
0.14802851802339678
0.21730326074756168
0.268369017569895
0.28
0.28
0.28
0.28
0.268369017569895
0.21730326074756168
0.1480285180233967
0.0738422573266803
0.003431808776445214
0.08070587487957073
0.15797994098269605
0.2355345327308524
0.3141822452127742
0.3933757113818016
0.4728407949863646
0.47021229436374234
0.3902122943637424
0.3102122943637423
0.23021229436374235
0.15021229436374228
0.07021229436374232
0.009787705636257638
0.08978770563625771
0.16978770563625767
0.24909591314113283
0.3263699792442583
0.3600000000000001
0.3600000000000001
0.3600000000000001
0.3600000000000001
0.32636997924425837
0.24909591314113283
0.16978770563625756
0.08978770563625771
0.009787705636257638
0.07021229436374243
0.15021229436374228
0.23021229436374235
0.3102122943637424
0.3902122943637423
0.47021229436374234
0.4703231790237287
0.39034590510057576
0.310380344948885
0.2304386934357815
0.1505590393639362
0.0709510904496367
0.014145322117002321
0.09036660356345695
0.17009455000497872
0.24999637766015215
0.3299457860694673
0.4099149358669429
0.43999999999999995
0.43999999999999995
0.4099149358669428
0.3299457860694673
0.24999637766015215
0.1700945500049786
0.09036660356345695
0.014145322117002321
0.07095109044963681
0.1505590393639362
0.2304386934357815
0.3103803449488851
0.39034590510057565
0.4703231790237287
0.4787879069328978
0.40050454769825833
0.32306334615487975
0.2472568675094564
0.1752198374396863
0.11431545973398055
0.09074170615539778
0.12727957470778173
0.19226576148548918
0.2655789071846562
0.34190377132052446
0.41960007357601675
0.4980263593895406
0.4980263593895406
0.41960007357601664
0.34190377132052446
0.2655789071846562
0.19226576148548907
0.12727957470778173
0.09074170615539778
0.11431545973398062
0.1752198374396863
0.2472568675094564
0.3230633461548798
0.4005045476982582
0.4787879069328978
0.5000718217650181
0.4257204009971631
0.3538416209647849
0.2863039043198463
0.22701532664247345
0.1841249343038312
0.17049347299586393
0.192442347823946
0.2404164930652509
0.3022682964513398
0.37112283133943175
0.4437321138290506
0.5185211873636396
0.5185211873636396
0.4437321138290505
0.37112283133943175
0.3022682964513398
0.24041649306525084
0.192442347823946
0.17049347299586393
0.18412493430383126
0.22701532664247345
0.2863039043198463
0.35384162096478494
0.42572040099716296
0.5000718217650181
0.5326403984130219
0.46354269158663697
0.39854467732637605
0.34000572455031763
0.2918388692905516
0.2598768141458351
0.2504036569868542
0.2658345807719367
0.3023806495726745
0.35355351806734125
0.4139639151418817
0.480137642704044
0.5499983534913513
0.5499983534913513
0.4801376427040439
0.4139639151418817
0.35355351806734125
0.30238064957267446
0.2658345807719367
0.2504036569868542
0.2598768141458351
0.2918388692905516
0.34000572455031763
0.39854467732637616
0.4635426915866369
0.5326403984130219
0.5745778982172753
0.5111807840887438
0.4530693400831533
0.402539264948384
0.36277250822931234
0.3375943210849195
0.330357319474821
0.34220168239269394
0.3713058366551641
0.414045960294256
0.46669057215439214
0.5262757100984189
0.5907047959356655
0.5907047959356655
0.5262757100984189
0.46669057215439214
0.414045960294256
0.37130583665516403
0.34220168239269394
0.330357319474821
0.33759432108491955
0.36277250822931234
0.402539264948384
0.45306934008315336
0.5111807840887437
0.5745778982172753
0.6239981796591881
0.5661623098721618
0.514301267761983
0.4703953942412533
0.43684992826505686
0.4161777177204308
0.4103290455583029
0.4199237532345474
0.4439617004116349
0.48027911086595415
0.5263402485427014
0.5798276383010679
0.6388788015262324
0.6388788015262324
0.5798276383010678
0.5263402485427014
0.48027911086595415
0.44396170041163485
0.4199237532345474
0.4103290455583029
0.4161777177204308
0.43684992826505686
0.4703953942412533
0.514301267761983
0.5661623098721618
0.6239981796591881
0.679269972335138
0.6265570430678922
0.5801204712124729
0.5415771358002319
0.5127102758121628
0.4952149632484718
0.4903099965603256
0.49836725978818847
0.5187831517412539
0.5501835979310816
0.5908197900664731
0.6389319660464583
0.6929647106006148
0.6929647106006148
0.6389319660464583
0.5908197900664731
0.5501835979310816
0.5187831517412539
0.49836725978818847
0.4903099965603256
0.4952149632484718
0.5127102758121628
0.5415771358002319
0.5801204712124729
0.6265570430678921
0.679269972335138
0.739081634472389
0.6909469555010567
0.6491330589470701
0.614930696192491
0.5896658325031076
0.5745187785646211
0.5702962912602407
0.577238159451527
0.5949537172157072
0.6225238618162271
0.6587123738266879
0.7021880263392358
0.7516874731136556
0.7516874731136556
0.7021880263392358
0.6587123738266879
0.6225238618162271
0.5949537172157072
0.577238159451527
0.5702962912602407
0.5745187785646211
0.5896658325031076
0.614930696192491
0.6491330589470702
0.6909469555010566
0.739081634472389

SCALARS phi2 double 1
LOOKUP_TABLE default
1.5051220830747942
1.4820791199734276
1.4630531606073
1.4482025354434414
1.437656640706192
1.4315106180075696
1.429821206434642
1.4326041725724579
1.43983358349978
1.4514429995957883
1.467328461516855
1.487352966474072
1.511352003929271
1.511352003929271
1.487352966474072
1.467328461516855
1.4514429995957883
1.43983358349978
1.4326041725724579
1.429821206434642
1.4315106180075696
1.437656640706192
1.4482025354434414
1.4630531606073
1.4820791199734273
1.5051220830747942
1.4293447631896254
1.4050596019242059
1.384975999019914
1.3692788433197274
1.3581202390307021
1.3516125985527854
1.349823191928637
1.3527707427240638
1.3604244614354803
1.37270563056098
1.3894915548774016
1.4106214282993932
1.4359034949742346
1.4359034949742346
1.4106214282993932
1.3894915548774016
1.37270563056098
1.3604244614354803
1.3527707427240638
1.349823191928637
1.3516125985527854
1.3581202390307021
1.3692788433197274
1.3849759990199142
1.4050596019242059
1.4293447631896254
1.3540533295095158
1.3283924314966593
1.3071313954455412
1.290487705428149
1.2786416819277442
1.2717274014759656
1.2698254275949166
1.272958227699721
1.2810888659145452
1.2941231453273745
1.3119149165147173
1.3342738778360381
1.3609749497979087
1.3609749497979087
1.3342738778360381
1.3119149165147173
1.2941231453273745
1.2810888659145452
1.272958227699721
1.2698254275949166
1.2717274014759656
1.2786416819277442
1.290487705428149
1.3071313954455412
1.3283924314966593
1.3540533295095158
1.2793335711431966
1.2521423318280578
1.2295635209527025
1.2118549768678628
1.1992324703164143
1.1918576050699223
1.1898279638942817
1.1931708245538915
1.2018413578623488
1.215725578562126
1.234647607729435
1.2583802081143116
1.2866572119549244
1.2866572119549244
1.2583802081143116
1.234647607729435
1.215725578562126
1.2018413578623488
1.1931708245538915
1.1898279638942817
1.1918576050699223
1.1992324703164143
1.2118549768678628
1.2295635209527027
1.2521423318280578
1.2793335711431966
1.2052918125301455
1.1763904055431618
1.1523282601567166
1.1334136279653633
1.1199073555251828
1.112006527796132
1.1098308658363267
1.1134139318621858
1.1227005907928493
1.137551163450864
1.1577515633201345
1.1830277745141982
1.2130625491596951
1.2130625491596951
1.1830277745141982
1.1577515633201345
1.137551163450864
1.1227005907928493
1.1134139318621858
1.1098308658363267
1.112006527796132
1.1199073555251828
1.1334136279653633
1.1523282601567169
1.1763904055431618
1.2052918125301455
1.132061093956683
1.101239462311537
1.0754972739407591
1.0552063396112656
1.0406855682950575
1.0321785140950224
1.029834218629974
1.0336946119444614
1.0436908467859685
1.059649289419199
1.081305992524047
1.1083269744846127
1.1403309674265698
1.1403309674265698
1.1083269744846127
1.081305992524047
1.059649289419199
1.0436908467859685
1.0336946119444614
1.029834218629974
1.0321785140950224
1.0406855682950575
1.0552063396112656
1.0754972739407591
1.101239462311537
1.132061093956683
1.0598095524897864
1.0268214647398068
0.9991638270835286
0.9772893053001268
0.9615926472034849
0.9523793635193946
0.9498381361892184
0.9540222837340905
0.9648443142616381
0.982084814903892
1.0054136544560222
1.0344189912547113
1.0686387052555302
1.0686387052555302
1.0344189912547113
1.0054136544560222
0.982084814903892
0.9648443142616381
0.9540222837340905
0.9498381361892184
0.9523793635193946
0.9615926472034849
0.9772893053001268
0.9991638270835286
1.0268214647398066
1.0598095524897864
0.9887518670762648
0.9533080758855454
0.9234513091930738
0.8997379359303481
0.8826632349055922
0.8726169945375839
0.8698427743320094
0.8744097923510511
0.8862045575719014
0.9049445014822791
0.930209967515298
0.96148666998904
0.9982097221868831
0.9982097221868831
0.96148666998904
0.930209967515298
0.9049445014822791
0.8862045575719014
0.8744097923510511
0.8698427743320094
0.8726169945375839
0.8826632349055922
0.8997379359303481
0.9234513091930738
0.9533080758855454
0.9887518670762648
0.9191649589409935
0.8809257940637223
0.8485259498380712
0.8226556511994566
0.8039454915304912
0.79290250740807
0.7898483519991706
0.7948751172716422
0.8078319657945012
0.8283468584241804
0.855876481019902
0.8897699610937716
0.929331273855891
0.929331273855891
0.8897699610937715
0.855876481019902
0.8283468584241804
0.8078319657945012
0.7948751172716422
0.7898483519991706
0.79290250740807
0.8039454915304912
0.8226556511994566
0.8485259498380712
0.8809257940637222
0.9191649589409935
0.8514095306274163
0.8099779143563104
0.7746161982858348
0.7461878366394088
0.7255083186638195
0.7132519564306876
0.7098551868191179
0.7154442110715593
0.7298126143453586
0.75245763000943
0.7826611769221785
0.8195880372254166
0.8623749669748143
0.8623749669748143
0.8195880372254165
0.7826611769221785
0.75245763000943
0.7298126143453586
0.7154442110715593
0.7098551868191179
0.7132519564306876
0.7255083186638195
0.7461878366394088
0.7746161982858348
0.8099779143563104
0.8514095306274163
0.7859593856818531
0.7408766353740663
0.7020428916704438
0.6705447447014999
0.647453695293031
0.633689451111822
0.6298637577700461
0.6361559449176001
0.6522732703060933
0.6775149091035614
0.7109096179961334
0.7513710919786637
0.7978248872797907
0.7978248872797907
0.7513710919786636
0.7109096179961334
0.6775149091035614
0.6522732703060933
0.6361559449176001
0.6298637577700461
0.633689451111822
0.647453695293031
0.6705447447014999
0.7020428916704439
0.7408766353740663
0.7859593856818531
0.7234404765007241
0.6741899998823744
0.6312671295443769
0.5960404531111948
0.5699388165819201
0.5542529093731496
0.5498748225281842
0.5570712282573955
0.5754080171964974
0.6038711941762132
0.6411134471040262
0.6857058297545736
0.7363141434613417
0.7363141434613417
0.6857058297545735
0.6411134471040262
0.6038711941762132
0.5754080171964973
0.5570712282573955
0.5498748225281842
0.5542529093731497
0.5699388165819201
0.5960404531111948
0.6312671295443769
0.6741899998823744
0.7234404765007241
0.6646804421207184
0.6107095242745072
0.5629672778602643
0.523161723411793
0.49321822933159976
0.4750055311749536
0.46988965465160115
0.4782910415744813
0.4995281306915592
0.5320661483819513
0.5739864276756079
0.6233991113705626
0.6786696434638935
0.6786696434638935
0.6233991113705626
0.5739864276756079
0.5320661483819513
0.49952813069155916
0.4782910415744813
0.46988965465160115
0.4750055311749536
0.49321822933159976
0.523161723411793
0.5629672778602643
0.6107095242745072
0.6646804421207184
0.6107651408160033
0.5515433710396614
0.4981627475430041
0.4526943294778454
0.4177298036329192
0.39606088136168976
0.3899105726276215
0.39999535940883235
0.4251615227774054
0.46295610305103807
0.5105823990836392
0.5655620382909429
0.6259604237151156
0.6259604237151156
0.5655620382909428
0.5105823990836392
0.46295610305103807
0.4251615227774053
0.39999535940883235
0.3899105726276215
0.39606088136168976
0.4177298036329192
0.4526943294778454
0.49816274754300416
0.5515433710396613
0.6107651408160033
0.5630879365908944
0.49823092761890286
0.43840630713733303
0.3859612973338063
0.34428499232670023
0.3176447525824994
0.3099422877649942
0.3225372143595212
0.3532651802097129
0.39794763531198696
0.4524691739248138
0.5137065176285042
0.5795346574242181
0.5795346574242181
0.5137065176285041
0.4524691739248138
0.39794763531198696
0.35326518020971287
0.3225372143595212
0.3099422877649942
0.31764475258249947
0.34428499232670023
0.3859612973338063
0.43840630713733314
0.4982309276189028
0.5630879365908944
0.5233564668869489
0.45284437098653585
0.386049293790304
0.3252692579045762
0.2745289111179275
0.24027516713425912
0.22999606266890177
0.2467067525322293
0.2857100884582129
0.33940578596806664
0.4019481564212011
0.4698173616972914
0.541012371627493
0.541012371627493
0.46981736169729127
0.4019481564212011
0.33940578596806664
0.28571008845821283
0.2467067525322293