# vtk DataFile Version 4.1
Header:
ASCII

DATASET UNSTRUCTURED_GRID
POINTS 484 double
-1 -1 0
-0.9047619047619048 -1 0
-0.8095238095238095 -1 0
-0.7142857142857143 -1 0
-0.6190476190476191 -1 0
-0.5238095238095238 -1 0
-0.4285714285714286 -1 0
-0.33333333333333337 -1 0
-0.23809523809523814 -1 0
-0.1428571428571429 -1 0
-0.04761904761904767 -1 0
0.04761904761904745 -1 0
0.1428571428571428 -1 0
0.23809523809523814 -1 0
0.33333333333333326 -1 0
0.4285714285714284 -1 0
0.5238095238095237 -1 0
0.6190476190476191 -1 0
0.7142857142857142 -1 0
0.8095238095238093 -1 0
0.9047619047619047 -1 0
1 -1 0
-1 -0.9047619047619048 0
-0.9047619047619048 -0.9047619047619048 0
-0.8095238095238095 -0.9047619047619048 0
-0.7142857142857143 -0.9047619047619048 0
-0.6190476190476191 -0.9047619047619048 0
-0.5238095238095238 -0.9047619047619048 0
-0.4285714285714286 -0.9047619047619048 0
-0.33333333333333337 -0.9047619047619048 0
-0.23809523809523814 -0.9047619047619048 0
-0.1428571428571429 -0.9047619047619048 0
-0.04761904761904767 -0.9047619047619048 0
0.04761904761904745 -0.9047619047619048 0
0.1428571428571428 -0.9047619047619048 0
0.23809523809523814 -0.9047619047619048 0
0.33333333333333326 -0.9047619047619048 0
0.4285714285714284 -0.9047619047619048 0
0.5238095238095237 -0.9047619047619048 0
0.6190476190476191 -0.9047619047619048 0
0.7142857142857142 -0.9047619047619048 0
0.8095238095238093 -0.9047619047619048 0
0.9047619047619047 -0.9047619047619048 0
1 -0.9047619047619048 0
-1 -0.8095238095238095 0
-0.9047619047619048 -0.8095238095238095 0
-0.8095238095238095 -0.8095238095238095 0
-0.7142857142857143 -0.8095238095238095 0
-0.6190476190476191 -0.8095238095238095 0
-0.5238095238095238 -0.8095238095238095 0
-0.4285714285714286 -0.8095238095238095 0
-0.33333333333333337 -0.8095238095238095 0
-0.23809523809523814 -0.8095238095238095 0
-0.1428571428571429 -0.8095238095238095 0
-0.04761904761904767 -0.8095238095238095 0
0.04761904761904745 -0.8095238095238095 0
0.1428571428571428 -0.8095238095238095 0
0.23809523809523814 -0.8095238095238095 0
0.33333333333333326 -0.8095238095238095 0
0.4285714285714284 -0.8095238095238095 0
0.5238095238095237 -0.8095238095238095 0
0.6190476190476191 -0.8095238095238095 0
0.7142857142857142 -0.8095238095238095 0
0.8095238095238093 -0.8095238095238095 0
0.9047619047619047 -0.8095238095238095 0
1 -0.8095238095238095 0
-1 -0.7142857142857143 0
-0.9047619047619048 -0.7142857142857143 0
-0.8095238095238095 -0.7142857142857143 0
-0.7142857142857143 -0.7142857142857143 0
-0.6190476190476191 -0.7142857142857143 0
-0.5238095238095238 -0.7142857142857143 0
-0.4285714285714286 -0.7142857142857143 0
-0.33333333333333337 -0.7142857142857143 0
-0.23809523809523814 -0.7142857142857143 0
-0.1428571428571429 -0.7142857142857143 0
-0.04761904761904767 -0.7142857142857143 0
0.04761904761904745 -0.7142857142857143 0
0.1428571428571428 -0.7142857142857143 0
0.23809523809523814 -0.7142857142857143 0
0.33333333333333326 -0.7142857142857143 0
0.4285714285714284 -0.7142857142857143 0
0.5238095238095237 -0.7142857142857143 0
0.6190476190476191 -0.7142857142857143 0
0.7142857142857142 -0.7142857142857143 0
0.8095238095238093 -0.7142857142857143 0
0.9047619047619047 -0.7142857142857143 0
1 -0.7142857142857143 0
-1 -0.6190476190476191 0
-0.9047619047619048 -0.6190476190476191 0
-0.8095238095238095 -0.6190476190476191 0
-0.7142857142857143 -0.6190476190476191 0
-0.6190476190476191 -0.6190476190476191 0
-0.5238095238095238 -0.6190476190476191 0
-0.4285714285714286 -0.6190476190476191 0
-0.33333333333333337 -0.6190476190476191 0
-0.23809523809523814 -0.6190476190476191 0
-0.1428571428571429 -0.6190476190476191 0
-0.04761904761904767 -0.6190476190476191 0
0.04761904761904745 -0.6190476190476191 0
0.1428571428571428 -0.6190476190476191 0
0.23809523809523814 -0.6190476190476191 0
0.33333333333333326 -0.6190476190476191 0
0.4285714285714284 -0.6190476190476191 0
0.5238095238095237 -0.6190476190476191 0
0.6190476190476191 -0.6190476190476191 0
0.7142857142857142 -0.6190476190476191 0
0.8095238095238093 -0.6190476190476191 0
0.9047619047619047 -0.6190476190476191 0
1 -0.6190476190476191 0
-1 -0.5238095238095238 0
-0.9047619047619048 -0.5238095238095238 0
-0.8095238095238095 -0.5238095238095238 0
-0.7142857142857143 -0.5238095238095238 0
-0.6190476190476191 -0.5238095238095238 0
-0.5238095238095238 -0.5238095238095238 0
-0.4285714285714286 -0.5238095238095238 0
-0.33333333333333337 -0.5238095238095238 0
-0.23809523809523814 -0.5238095238095238 0
-0.1428571428571429 -0.5238095238095238 0
-0.04761904761904767 -0.5238095238095238 0
0.04761904761904745 -0.5238095238095238 0
0.1428571428571428 -0.5238095238095238 0
0.23809523809523814 -0.5238095238095238 0
0.33333333333333326 -0.5238095238095238 0
0.4285714285714284 -0.5238095238095238 0
0.5238095238095237 -0.5238095238095238 0
0.6190476190476191 -0.5238095238095238 0
0.7142857142857142 -0.5238095238095238 0
0.8095238095238093 -0.5238095238095238 0
0.9047619047619047 -0.5238095238095238 0
1 -0.5238095238095238 0
-1 -0.4285714285714286 0
-0.9047619047619048 -0.4285714285714286 0
-0.8095238095238095 -0.4285714285714286 0
-0.7142857142857143 -0.4285714285714286 0
-0.6190476190476191 -0.4285714285714286 0
-0.5238095238095238 -0.4285714285714286 0
-0.4285714285714286 -0.4285714285714286 0
-0.33333333333333337 -0.4285714285714286 0
-0.23809523809523814 -0.4285714285714286 0
-0.1428571428571429 -0.4285714285714286 0
-0.04761904761904767 -0.4285714285714286 0
0.04761904761904745 -0.4285714285714286 0
0.1428571428571428 -0.4285714285714286 0
0.23809523809523814 -0.4285714285714286 0
0.33333333333333326 -0.4285714285714286 0
0.4285714285714284 -0.4285714285714286 0
0.5238095238095237 -0.4285714285714286 0
0.6190476190476191 -0.4285714285714286 0
0.7142857142857142 -0.4285714285714286 0
0.8095238095238093 -0.4285714285714286 0
0.9047619047619047 -0.4285714285714286 0
1 -0.4285714285714286 0
-1 -0.33333333333333337 0
-0.9047619047619048 -0.33333333333333337 0
-0.8095238095238095 -0.33333333333333337 0
-0.7142857142857143 -0.33333333333333337 0
-0.6190476190476191 -0.33333333333333337 0
-0.5238095238095238 -0.33333333333333337 0
-0.4285714285714286 -0.33333333333333337 0
-0.33333333333333337 -0.33333333333333337 0
-0.23809523809523814 -0.33333333333333337 0
-0.1428571428571429 -0.33333333333333337 0
-0.04761904761904767 -0.33333333333333337 0
0.04761904761904745 -0.33333333333333337 0
0.1428571428571428 -0.33333333333333337 0
0.23809523809523814 -0.33333333333333337 0
0.33333333333333326 -0.33333333333333337 0
0.4285714285714284 -0.33333333333333337 0
0.5238095238095237 -0.33333333333333337 0
0.6190476190476191 -0.33333333333333337 0
0.7142857142857142 -0.33333333333333337 0
0.8095238095238093 -0.33333333333333337 0
0.9047619047619047 -0.33333333333333337 0
1 -0.33333333333333337 0
-1 -0.23809523809523814 0
-0.9047619047619048 -0.23809523809523814 0
-0.8095238095238095 -0.23809523809523814 0
-0.7142857142857143 -0.23809523809523814 0
-0.6190476190476191 -0.23809523809523814 0
-0.5238095238095238 -0.23809523809523814 0
-0.4285714285714286 -0.23809523809523814 0
-0.33333333333333337 -0.23809523809523814 0
-0.23809523809523814 -0.23809523809523814 0
-0.1428571428571429 -0.23809523809523814 0
-0.04761904761904767 -0.23809523809523814 0
0.04761904761904745 -0.23809523809523814 0
0.1428571428571428 -0.23809523809523814 0
0.23809523809523814 -0.23809523809523814 0
0.33333333333333326 -0.23809523809523814 0
0.4285714285714284 -0.23809523809523814 0
0.5238095238095237 -0.23809523809523814 0
0.6190476190476191 -0.23809523809523814 0
0.7142857142857142 -0.23809523809523814 0
0.8095238095238093 -0.23809523809523814 0
0.9047619047619047 -0.23809523809523814 0
1 -0.23809523809523814 0
-1 -0.1428571428571429 0
-0.9047619047619048 -0.1428571428571429 0
-0.8095238095238095 -0.1428571428571429 0
-0.7142857142857143 -0.1428571428571429 0
-0.6190476190476191 -0.1428571428571429 0
-0.5238095238095238 -0.1428571428571429 0
-0.4285714285714286 -0.1428571428571429 0
-0.33333333333333337 -0.1428571428571429 0
-0.23809523809523814 -0.1428571428571429 0
-0.1428571428571429 -0.1428571428571429 0
-0.04761904761904767 -0.1428571428571429 0
0.04761904761904745 -0.1428571428571429 0
0.1428571428571428 -0.1428571428571429 0
0.23809523809523814 -0.1428571428571429 0
0.33333333333333326 -0.1428571428571429 0
0.4285714285714284 -0.1428571428571429 0
0.5238095238095237 -0.1428571428571429 0
0.6190476190476191 -0.1428571428571429 0
0.7142857142857142 -0.1428571428571429 0
0.8095238095238093 -0.1428571428571429 0
0.9047619047619047 -0.1428571428571429 0
1 -0.1428571428571429 0
-1 -0.04761904761904767 0
-0.9047619047619048 -0.04761904761904767 0
-0.8095238095238095 -0.04761904761904767 0
-0.7142857142857143 -0.04761904761904767 0
-0.6190476190476191 -0.04761904761904767 0
-0.5238095238095238 -0.04761904761904767 0
-0.4285714285714286 -0.04761904761904767 0
-0.33333333333333337 -0.04761904761904767 0
-0.23809523809523814 -0.04761904761904767 0
-0.1428571428571429 -0.04761904761904767 0
-0.04761904761904767 -0.04761904761904767 0
0.04761904761904745 -0.04761904761904767 0
0.1428571428571428 -0.04761904761904767 0
0.23809523809523814 -0.04761904761904767 0
0.33333333333333326 -0.04761904761904767 0
0.4285714285714284 -0.04761904761904767 0
0.5238095238095237 -0.04761904761904767 0
0.6190476190476191 -0.04761904761904767 0
0.7142857142857142 -0.04761904761904767 0
0.8095238095238093 -0.04761904761904767 0
0.9047619047619047 -0.04761904761904767 0
1 -0.04761904761904767 0
-1 0.04761904761904745 0
-0.9047619047619048 0.04761904761904745 0
-0.8095238095238095 0.04761904761904745 0
-0.7142857142857143 0.04761904761904745 0
-0.6190476190476191 0.04761904761904745 0
-0.5238095238095238 0.04761904761904745 0
-0.4285714285714286 0.04761904761904745 0
-0.33333333333333337 0.04761904761904745 0
-0.23809523809523814 0.04761904761904745 0
-0.1428571428571429 0.04761904761904745 0
-0.04761904761904767 0.04761904761904745 0
[...]
POINT_DATA 484
SCALARS phi1 double 1
LOOKUP_TABLE default
1.2401434992741867
1.192524451655139
1.146966488405608
1.1076557381401737
1.0753654878753434
1.0497338980365511
1.0257898897723567
1.0088497300281039
1.0007253605088324
1
1
1
1
1.0007253605088324
1.0088497300281036
1.0257898897723567
1.0497338980365511
1.0753654878753434
1.1076557381401737
1.146966488405608
1.192524451655139
1.2401434992741867
1.158494944721695
1.1100458417709067
1.062636505706679
1.020081100682618
0.9849239311989448
0.9577409621994971
0.9331875493530621
0.9145336965285467
0.9055635546298907
0.9047619047619048
0.9047619047619048
0.9047619047619048
0.9047619047619048
0.9055635546298907
0.9145336965285467
0.933187549353062
0.9577409621994969
0.9849239311989448
1.020081100682618
1.062636505706679
1.1100458417709067
1.158494944721695
1.0790697543375423
1.0276065328100874
0.9799481842676269
0.934007633413149
0.8954775025384799
0.8657541483586644
0.8410985934955361
0.8204307258774008
0.8104196723620879
0.8095238095238095
0.8095238095238095
0.8095238095238095
0.8095238095238095
0.8104196723620879
0.8204307258774008
0.8410985934955361
0.8657541483586644
0.8954775025384799
0.934007633413149
0.9799481842676268
1.0276065328100874
1.0790697543375423
1.0024036722177372
0.9467823264211738
0.8974695743833946
0.8498915555218571
0.8073570179455208
0.7742581238021122
0.749105657658482
0.7266236022938085
0.7153008659285867
0.7142857142857143
0.7142857142857143
0.7142857142857143
0.7142857142857143
0.7153008659285867
0.7266236022938085
0.749105657658482
0.7742581238021122
0.8073570179455208
0.8498915555218571
0.8974695743833946
0.9467823264211738
1.0024036722177372
0.9291799066888431
0.8688837382194308
0.8152810507176154
0.7673719168801149
0.7210487784251325
0.6837847824542885
0.657112721821428
0.6332438175192111
0.6202186725777119
0.6190476190476191
0.6190476190476191
0.6190476190476191
0.6190476190476191
0.6202186725777119
0.6332438175192111
0.6571127218214279
0.6837847824542884
0.7210487784251325
0.7673719168801147
0.8152810507176151
0.8688837382194308
0.9291799066888431
0.8601927867747965
0.7947714873031212
0.735789343594389
0.6848933069958824
0.6372742593768349
0.5948009790910833
0.5651197859843738
0.5405128999490557
0.5251929782461805
0.5238095238095238
0.5238095238095238
0.5238095238095238
0.5238095238095238
0.5251929782461805
0.5405128999490557
0.5651197859843738
0.5948009790910833
0.6372742593768349
0.6848933069958824
0.7357893435943889
0.7947714873031212
0.8601927867747965
0.792849283804649
0.7255057808345018
0.6604765811170492
0.60340214193378
0.5547956494926026
0.5080899234471443
0.4732295930363706
0.44847741728041296
0.43026121897434355
0.4285714285714286
0.4285714285714286
0.4285714285714286
0.4285714285714286
0.43026121897434355
0.44847741728041296
0.47322959303637047
0.5080899234471443
0.5547956494926026
0.60340214193378
0.6604765811170491
0.7255057808345018
0.7928492838046493
0.7270129014371237
0.6581622778643543
0.590818774894207
0.5263820765531807
0.4723170396083704
0.42469799198932273
0.3826930922754467
0.35648448144335887
0.3355031419773055
0.33333333333333337
0.33333333333333337
0.33333333333333337
0.33333333333333337
0.3355031419773055
0.3564844814433588
0.3826930922754466
0.4246979919893227
0.4723170396083704
0.5263820765531806
0.5908187748942069
0.6581622778643542
0.7270129014371237
0.6679847254670735
0.5926684955345919
0.5234752719240595
0.4561317689539122
0.3926933230488304
0.34221938210509045
0.29513106850089366
0.2644915456063048
0.24112359811756504
0.23809523809523814
0.23809523809523814
0.23809523809523814
0.23809523809523814
0.24112359811756504
0.2644915456063047
0.29513106850089355
0.3422193821050904
0.3926933230488304
0.4561317689539121
0.5234752719240594
0.5926684955345918
0.6679847254670735
0.6176563118272155
0.5357726847924353
0.4585251481443195
0.38878826598376487
0.32144476301361746
0.2600368830688247
0.21212172460181064
0.17249860976925063
0.1478492828215241
0.1428571428571429
0.1428571428571429
0.1428571428571429
0.1428571428571429
0.1478492828215241
0.1724986097692506
0.2121217246018105
0.26003688306882466
0.32144476301361746
0.3887882659837647
0.45852514814431933
0.5357726847924352
0.6176563118272154
0.5700579379159826
0.4875586543239355
0.4050800444397033
0.32483204352499717
0.25410126004347006
0.18675775707332273
0.12964311471757836
0.08217221383313479
0.05585624106528981
0.04761904761904767
0.04761904761904767
0.04761904761904767
0.04761904761904767
0.05585624106528981
0.08217221383313475
0.12964311471757828
0.18675775707332265
0.25410126004347006
0.32483204352499706
0.4050800444397031
0.4875586543239354
0.5700579379159826
0.5296677580455087
0.44172853154248476
0.35746099682065574
0.2749823869364235
0.19252942803323134
0.11941425410317537
0.05207075113302803
0.00045454278570139945
0.036136694771764205
0.04761904761904745
0.04761904761904745
0.04761904761904745
0.04761904761904745
0.036136694771764205
0.00045454278570145496
0.05207075113302788
0.11941425410317531
0.19252942803323134
0.2749823869364234
0.3574609968206555
0.44172853154248465
0.5296677580455087
0.5025713887235437
0.41057845288648953
0.31869000253327606
0.22895558197760965
0.14488472943314357
0.062406119548911336
0.01527275183711945
0.0826162548072668
0.1281296306088184
0.1428571428571428
0.1428571428571428
0.1428571428571428
0.1428571428571428
0.1281296306088184
0.08261625480726688
0.015272751837119604
0.06240611954891124
0.14488472943314357
0.22895558197760954
0.31869000253327584
0.4105784528864894
0.5025713887235437
0.4790690037714562
0.38602222554366133
0.29393608418252865
0.20194314834547455
0.10995021250842046
0.01795727667136635
0.06769153795436858
0.1499597577774143
0.21303081017321374
0.23809523809523814
0.23809523809523814
0.23809523809523814
0.23809523809523814
0.21303081017321374
0.14995975777741438
0.06769153795436877
0.017957276671366238
0.10995021250842046
0.20194314834547447
0.2939360841825285
0.3860222255436612
0.4790690037714562
0.47021229436374234
0.3749741991256471
0.2797361038875519
0.18449800864945665
0.08925991341136141
0.005978181826733819
0.09868509203259447
0.19067802786964858
0.2802678053418806
0.33333333333333326
0.33333333333333326
0.33333333333333326
0.33333333333333326
0.2802678053418806
0.1906780278696487
0.09868509203259469
0.00597818182673393
0.08925991341136141
0.18449800864945654
0.27973610388755166
0.374974199125647
0.47021229436374234
0.47021229436374234
0.3749741991256471
0.2797361038875519
0.18449800864945665
0.08925991341136141
0.005978181826733819
0.10121627706482905
0.19645437230292428
0.2916924675410195
0.38693056277911475
0.4285714285714284
0.4285714285714284
0.38693056277911486
0.2916924675410195
0.1964543723029244
0.10121627706482927
0.00597818182673393
0.08925991341136141
0.18449800864945654
0.27973610388755166
0.374974199125647
0.47021229436374234
0.47952028535133046
0.3865821417273788
0.29511419842290537
0.20707394207920443
0.12964348975097234
0.09421168160350511
0.13814788103865716
0.2177944505480861
0.30647120242002424
0.39819010874853383
0.4912501573197956
0.4912501573197958
0.39819010874853394
0.30647120242002424
0.2177944505480862
0.13814788103865733
0.09421168160350513
0.12964348975097234
0.20707394207920435
0.29511419842290515
0.3865821417273787
0.47952028535133046
0.5068716963840956
0.4200297189894978
0.3377448780406052
0.26430821027749224
0.2092525913021863
0.1893543067438118
0.21462537027886594
0.2727886273681732
0.34771225236486103
0.43073724616875025
0.5179825572339221
0.5179825572339222
0.43073724616875037
0.34771225236486103
0.2727886273681733
0.21462537027886605
0.1893543067438118
0.2092525913021863
0.2643082102774922
0.33774487804060505
0.42002971898949776
0.5068716963840956
0.5495804933731918
0.47068542248026635
0.39898797568810707
0.3390849924740423
0.29817184486082865
0.284560811749369
0.3019666399925173
0.34573608044640397
0.4074599520758759
0.48026490329615884
0.5598443816808591
0.5598443816808594
0.4802649032961589
0.4074599520758759
0.345736080446404
0.30196663999251744
0.284560811749369
0.29817184486082865
0.3390849924740422
0.39898797568810696
0.4706854224802662
0.5495804933731918
0.6043997934864903
0.5336713957161447
0.47164795813602833
0.42218363752200594
0.3900856838412572
0.37978315820169145
0.39299394822129485
0.4275439497790064
0.47883609326769244
0.5421390679597441
0.6137476055919198
0.61374760559192
0.5421390679597441
0.47883609326769244
0.4275439497790064
0.39299394822129485
0.3797831582016915
0.3900856838412572
0.4221836375220059
0.4716479581360282
0.5336713957161446
0.6043997934864903
0.6683562609909961
0.6051496838344794
0.5512284260206808
0.509548824972313
0.48328854939596244
0.4750118193192706
0.48563898585051235
0.5139988426368155
0.5573912319504305
0.6126301904473958
0.676821323991175
0.6768213239911752
0.6126301904473958
0.5573912319504305
0.5139988426368156
0.4856389858505124
0.4750118193192706
0.48328854939596244
0.509548824972313
0.5512284260206807
0.6051496838344793
0.6683562609909961
0.739081634472389
0.6824571126843677
0.6351333312476606
0.5993175917985206
0.5771562984025792
0.5702436315308719
0.5791258890659504
0.6031056135043839
0.6404893100308013
0.6890989196451593
0.7467453886149418
0.746745388614942
0.6890989196451593
0.6404893100308013
0.603105613504384
0.5791258890659504
0.5702436315308719
0.5771562984025792
0.5993175917985206
0.6351333312476605
0.6824571126843676
0.739081634472389

SCALARS phi2 double 1
LOOKUP_TABLE default
1.5051220830747942
1.4781402278534042
1.4568957310002595
1.4416422574217949
1.4325711903185814
1.4298002034712916
1.433365835344019
1.443221120821591
1.4592386298370674
1.4812184658588199
1.5089000954214002
1.5089000954214002
1.4812184658588199
1.4592386298370674
1.443221120821591
1.433365835344019
1.4298002034712916
1.4325711903185814
1.4416422574217949
1.4568957310002595
1.4781402278534042
1.5051220830747942
1.4149636971967519
1.3862280882393803
1.3635523277205293
1.3472424346826006
1.3375313060844933
1.3345630001134603
1.338382380845157
1.3489317933130727
1.3660553276621175
1.3895099578723604
1.4189817748611162
1.4189817748611164
1.3895099578723606
1.3660553276621175
1.348931793313073
1.338382380845157
1.3345630001134603
1.3375313060844933
1.3472424346826006
1.3635523277205293
1.3862280882393803
1.4149636971967519
1.3255159875984732
1.2947967723230784
1.2704901886384359
1.25296949156951
1.242521775966339
1.2393259338310865
1.2434378819833363
1.2547857793285981
1.2731761571866282
1.2983097827640766
1.3298043639507497
1.32980436395075
1.2983097827640766
1.2731761571866282
1.2547857793285981
1.2434378819833363
1.2393259338310865
1.242521775966339
1.25296949156951
1.2704901886384359
1.2947967723230784
1.3255159875984732
1.2369331396412544
1.2039558298300967
1.1777759880342882
1.1588543935143756
1.147550139346495
1.1440890388557656
1.1485419996303228
1.1608179489346693
1.1806728953406718
1.2077331040360362
1.241527528871621
1.241527528871621
1.2077331040360362
1.1806728953406718
1.1608179489346693
1.1485419996303228
1.1440890388557656
1.147550139346495
1.1588543935143756
1.177775988034288
1.2039558298300967
1.2369331396412544
1.1494151295661406
1.113849715318298
1.0854988835198867
1.0649389905061923
1.052626652924453
1.04885236185208
1.0537078689312314
1.0670753762980705
1.0886413706657034
1.1179314821210178
1.1543578964423686
1.1543578964423686
1.1179314821210178
1.0886413706657034
1.0670753762980707
1.0537078689312314
1.04885236185208
1.052626652924453
1.0649389905061923
1.0854988835198864
1.113849715318298
1.1494151295661406
1.0632249422288234
1.0246723017709567
0.9937806417036193
0.9712812111856612
0.9577656332051562
0.9536159681258612
0.9589538105401815
0.9736231285274637
0.997212199898717
1.0291078351753196
1.0685664653079785
1.0685664653079787
1.0291078351753196
0.997212199898717
0.9736231285274637
0.9589538105401815
0.9536159681258612
0.9577656332051562
0.9712812111856612
0.9937806417036192
1.0246723017709567
1.0632249422288234
0.9787134437865781
0.9366888775296145
0.9027916100052967
0.8779635063448729
0.8629876797614044
0.8583799519651668
0.8643061598881688
0.8805536461083473
0.9065676471714272
0.9415389868137862
0.9845135946506203
0.9845135946506204
0.9415389868137862
0.9065676471714272
0.8805536461083473
0.8643061598881688
0.8583799519651668
0.8629876797614044
0.8779635063448729
0.9027916100052966
0.9366888775296144
0.9787134437865781
0.8963555778198976
0.8502701747844318
0.8127767269897773
0.785107148938056
0.7683235335847988
0.7631444547239934
0.7698041665650375
0.7880025637743596
0.8169689196892355
0.8556102971158016
0.9026850696074157
0.9026850696074158
0.8556102971158016
0.8169689196892355
0.7880025637743596
0.7698041665650375
0.7631444547239934
0.7683235335847988
0.785107148938056
0.8127767269897772
0.8502701747844318
0.8963555778198976
0.8168030535559125
0.7659460010584093
0.7240993815393267
0.6928976415915004
0.6738211622304927
0.6679096983765108
0.6755089646113607
0.696176663587903
0.728801840109928
0.7718697344371074
0.8237440387047213
0.8237440387047215
0.7718697344371075
0.728801840109928
0.696176663587903
0.6755089646113607
0.6679096983765108
0.6738211622304927
0.6928976415915002
0.7240993815393266
0.7659460010584092
0.8168030535559125
0.7409600018063351
0.6844908856339506
0.6373181390202358
0.6016324772663494
0.5795597075782902
0.5726760525497665
0.5815211580406114
0.6054060149213629
0.6426559095863028
0.6911131476962307
0.7486045266228002
0.7486045266228003
0.6911131476962308
0.6426559095863028
0.6054060149213629
0.5815211580406114
0.5726760525497665
0.5795597075782902
0.6016324772663494
0.6373181390202358
0.6844908856339504
0.7409600018063351
0.670087165840823
0.6070608355541415
0.5533258496328896
0.5118170798726698
0.48567946239878784
0.47744418177596987
0.48801838366667716
0.5162475457091373
0.5594655518206109
0.6145180782258032
0.6785306351432403
0.6785306351432404
0.6145180782258032
0.5594655518206109
0.5162475457091374
0.48801838366667716
0.47744418177596987
0.48567946239878784
0.5118170798726698
0.5533258496328894
0.6070608355541414
0.670087165840823
0.6059310892679876
0.5354050178888835
0.47360866861667816
0.4243729472601785
0.39245409325535
0.3822154128611623
0.39534493535840254
0.42970595011892865
0.4807674893239392
0.5438456983219024
0.6152556362560139
0.6152556362560141
0.5438456983219024
0.4807674893239392
0.42970595011892876
0.3953449353584026
0.3822154128611623
0.39245409325535
0.42437294726017843
0.473608668616678
0.5354050178888835
0.6059310892679876
0.5508436707701688
0.4721597164801969
0.40072613550269803
0.34112851398315336
0.30049372705423194
0.28699283355981725
0.3042595645162264
0.3477405185676174
0.40916212370759375
0.48170987977132246
0.5610844523160989
0.5610844523160992
0.48170987977132257
0.40916212370759375
0.3477405185676175
0.3042595645162265
0.28699283355981725
0.30049372705423194
0.3411285139831533
0.40072613550269787
0.47215971648019683
0.5508436707701688
0.5077849976936887
0.4211313953172872
0.3391139777864545
0.26605547787553585
0.21145527719631046
0.19178566361935986
0.21677346898278166
0.27448191654260345
0.34904225780288195
0.43181160536109636
0.5188763021049255
0.5188763021049257
0.4318116053610965
0.34904225780288195
0.27448191654260357
0.21677346898278177
0.19178566361935986
0.21145527719631046
0.2660554778755358
0.33911397778645436
0.4211313953172871
0.5077849976936887
0.4800031746844658
0.3871809602062989
0.2958981813978219
0.20818972388656964
0.13141833235342343
0.0966394567156946
0.13981480851188605
0.21885558328104657
0.3072262058427306
0.3987714964098031
0.49172152760527815
0.4917215276052784
0.3987714964098032
0.3072262058427306
0.21885558328104665
0.13981480851188618
0.09663945671569461
0.13141833235342343
0.20818972388656953
0.2958981813978217
0.3871809602062988
0.4800031746844658
0.47021386740579346
0.3749761716960411
0.27973874802766535
0.18450201767328564
0.08926819966876316
0.006100654706826135
0.10122358456784006
0.1964581373393182
0.2916950032997946
0.38693247439632267
0.4821701920525735
0.4821701920525738
0.3869324743963228
0.2916950032997946
0.1964581373393183
0.10122358456784028
0.006100654706826244
0.08926819966876316
0.18450201767328553
0.27973874802766513
0.37497617169604097
0.47021386740579346
0.47952028535133046
0.3865821417273788
0.29511419842290537
0.20707394207920443
0.12964348975097234
0.09421168160350511
0.13814788103865716
0.2177944505480861
0.30647120242002424
0.39819010874853383
0.4912501573197956
0.4912501573197958
0.39819010874853394
0.30647120242002424
0.2177944505480862
0.13814788103865733
0.09421168160350513
0.12964348975097234
0.20707394207920435
0.29511419842290515
0.3865821417273787
0.47952028535133046
0.5068716963840956
0.4200297189894978
0.3377448780406052
0.26430821027749224
0.2092525913021863
0.1893543067438118
0.21462537027886594
0.2727886273681732
0.34771225236486103
0.43073724616875025
0.5179825572339221
0.5179825572339222
0.43073724616875037
0.34771225236486103
0.2727886273681733
0.21462537027886605
0.1893543067438118
0.2092525913021863
0.2643082102774922
0.33774487804060505
0.42002971898949776
0.5068716963840956
0.5495804933731918
0.47068542248026635
0.39898797568810707
0.3390849924740423
0.29817184486082865
0.284560811749369
0.3019666399925173
0.34573608044640397
0.4074599520758759
0.48026490329615884
0.5598443816808591
0.5598443816808594
0.4802649032961589
0.4074599520758759
0.345736080446404
0.30196663999251744
0.284560811749369
0.29817184486082865
0.3390849924740422
0.39898797568810696
0.4706854224802662
0.5495804933731918
0.6043997934864903
0.5336713957161447
0.47164795813602833
0.42218363752200594
0.3900856838412572
0.37978315820169145
0.39299394822129485
0.4275439497790064
0.47883609326769244
0.5421390679597441
0.6137476055919198
0.61374760559192
0.5421390679597441
0.47883609326769244
0.4275439497790064
0.39299394822129485
0.3797831582016915
0.3900856838412572
0.4221836375220059
0.4716479581360282
0.5336713957161446
0.6043997934864903
0.6683562609909961
0.6051496838344794
0.5512284260206808
0.509548824972313
0.48328854939596244
0.4750118193192706
0.48563898585051235
0.5139988426368155
0.5573912319504305
0.6126301904473958
0.676821323991175
0.6768213239911752
0.6126301904473958
0.5573912319504305
0.5139988426368156
0.4856389858505124
0.4750118193192706
0.48328854939596244
0.509548824972313
0.5512284260206807
0.6051496838344793
0.6683562609909961
0.739081634472389
0.6824571126843677
0.6351333312476606
0.5993175917985206
0.5771562984025792
0.5702436315308719
0.5791258890659504
0.6031056135043839
0.6404893100308013
0.6890989196451593
0.7467453886149418
0.746745388614942
0.6890989196451593
0.6404893100308013
0.603105613504384
0.5791258890659504
0.5702436315308719
0.5771562984025792
0.5993175917985206
0.6351333312476605
0.6824571126843676
0.739081634472389

SCALARS phi3 double 1
LOOKUP_TABLE default
-1.2401434992741867
-1.192524451655139
-1.146966488405608
-1.1076557381401737
-1.0753654878753434
-1.0497338980365511
-1.0257898897723567
-1.0088497300281039
-1.0007253605088324
-1
-1
-1
-1
-1.0007253605088324
-1.0088497300281036
-1.0257898897723567
-1.0497338980365511
-1.0753654878753434
-1.1076557381401737
-1.146966488405608
-1.192524451655139
-1.2401434992741867
-1.158494944721695
-1.1100458417709067
-1.062636505706679
-1.020081100682618
-0.9849239311989448
-0.9577409621994971
-0.9331875493530621
-0.9145336965285467
-0.9055635546298907
-0.9047619047619048
-0.9047619047619048
-0.9047619047619048
-0.9047619047619048
-0.9055635546298907
-0.9145336965285467
-0.933187549353062
-0.9577409621994969
-0.9849239311989448
-1.020081100682618
-1.062636505706679
-1.1100458417709067
-1.158494944721695
-1.0790697543375423
-1.0276065328100874
-0.9799481842676269
-0.934007633413149
-0.8954775025384799
-0.8657541483586644
-0.8410985934955361
-0.8204307258774008
-0.8104196723620879
-0.8095238095238095
-0.8095238095238095
-0.8095238095238095
-0.8095238095238095
-0.8104196723620879
-0.8204307258774008
-0.8410985934955361
-0.8657541483586644
-0.8954775025384799
-0.934007633413149
-0.9799481842676268
-1.0276065328100874
-1.0790697543375423
-1.0024036722177372
-0.9467823264211738
-0.8974695743833946
-0.8498915555218571
-0.8073570179455208