# vtk DataFile Version 4.1
Header:
ASCII

DATASET UNSTRUCTURED_GRID
POINTS 676 double
-1 -1 0
-0.92 -1 0
-0.84 -1 0
-0.76 -1 0
-0.6799999999999999 -1 0
-0.6 -1 0
-0.52 -1 0
-0.43999999999999995 -1 0
-0.36 -1 0
-0.28 -1 0
-0.19999999999999996 -1 0
-0.12 -1 0
-0.040000000000000036 -1 0
0.040000000000000036 -1 0
0.1200000000000001 -1 0
0.19999999999999996 -1 0
0.28 -1 0
0.3600000000000001 -1 0
0.43999999999999995 -1 0
0.52 -1 0
0.6000000000000001 -1 0
0.6799999999999999 -1 0
0.76 -1 0
0.8400000000000001 -1 0
0.9199999999999999 -1 0
1 -1 0
-1 -0.92 0
-0.92 -0.92 0
-0.84 -0.92 0
-0.76 -0.92 0
-0.6799999999999999 -0.92 0
-0.6 -0.92 0
-0.52 -0.92 0
-0.43999999999999995 -0.92 0
-0.36 -0.92 0
-0.28 -0.92 0
-0.19999999999999996 -0.92 0
-0.12 -0.92 0
-0.040000000000000036 -0.92 0
0.040000000000000036 -0.92 0
0.1200000000000001 -0.92 0
0.19999999999999996 -0.92 0
0.28 -0.92 0
0.3600000000000001 -0.92 0
0.43999999999999995 -0.92 0
0.52 -0.92 0
0.6000000000000001 -0.92 0
0.6799999999999999 -0.92 0
0.76 -0.92 0
0.8400000000000001 -0.92 0
0.9199999999999999 -0.92 0
1 -0.92 0
-1 -0.84 0
-0.92 -0.84 0
-0.84 -0.84 0
-0.76 -0.84 0
-0.6799999999999999 -0.84 0
-0.6 -0.84 0
-0.52 -0.84 0
-0.43999999999999995 -0.84 0
-0.36 -0.84 0
-0.28 -0.84 0
-0.19999999999999996 -0.84 0
-0.12 -0.84 0
-0.040000000000000036 -0.84 0
0.040000000000000036 -0.84 0
0.1200000000000001 -0.84 0
0.19999999999999996 -0.84 0
0.28 -0.84 0
0.3600000000000001 -0.84 0
0.43999999999999995 -0.84 0
0.52 -0.84 0
0.6000000000000001 -0.84 0
0.6799999999999999 -0.84 0
0.76 -0.84 0
0.8400000000000001 -0.84 0
0.9199999999999999 -0.84 0
1 -0.84 0
-1 -0.76 0
-0.92 -0.76 0
-0.84 -0.76 0
-0.76 -0.76 0
-0.6799999999999999 -0.76 0
-0.6 -0.76 0
-0.52 -0.76 0
-0.43999999999999995 -0.76 0
-0.36 -0.76 0
-0.28 -0.76 0
-0.19999999999999996 -0.76 0
-0.12 -0.76 0
-0.040000000000000036 -0.76 0
0.040000000000000036 -0.76 0
0.1200000000000001 -0.76 0
0.19999999999999996 -0.76 0
0.28 -0.76 0
0.3600000000000001 -0.76 0
0.43999999999999995 -0.76 0
0.52 -0.76 0
0.6000000000000001 -0.76 0
0.6799999999999999 -0.76 0
0.76 -0.76 0
0.8400000000000001 -0.76 0
0.9199999999999999 -0.76 0
1 -0.76 0
-1 -0.6799999999999999 0
-0.92 -0.6799999999999999 0
-0.84 -0.6799999999999999 0
-0.76 -0.6799999999999999 0
-0.6799999999999999 -0.6799999999999999 0
-0.6 -0.6799999999999999 0
-0.52 -0.6799999999999999 0
-0.43999999999999995 -0.6799999999999999 0
-0.36 -0.6799999999999999 0
-0.28 -0.6799999999999999 0
-0.19999999999999996 -0.6799999999999999 0
-0.12 -0.6799999999999999 0
-0.040000000000000036 -0.6799999999999999 0
0.040000000000000036 -0.6799999999999999 0
0.1200000000000001 -0.6799999999999999 0
0.19999999999999996 -0.6799999999999999 0
0.28 -0.6799999999999999 0
0.3600000000000001 -0.6799999999999999 0
0.43999999999999995 -0.6799999999999999 0
0.52 -0.6799999999999999 0
0.6000000000000001 -0.6799999999999999 0
0.6799999999999999 -0.6799999999999999 0
0.76 -0.6799999999999999 0
0.8400000000000001 -0.6799999999999999 0
0.9199999999999999 -0.6799999999999999 0
1 -0.6799999999999999 0
-1 -0.6 0
-0.92 -0.6 0
-0.84 -0.6 0
-0.76 -0.6 0
-0.6799999999999999 -0.6 0
-0.6 -0.6 0
-0.52 -0.6 0
-0.43999999999999995 -0.6 0
-0.36 -0.6 0
-0.28 -0.6 0
-0.19999999999999996 -0.6 0
-0.12 -0.6 0
-0.040000000000000036 -0.6 0
0.040000000000000036 -0.6 0
0.1200000000000001 -0.6 0
0.19999999999999996 -0.6 0
0.28 -0.6 0
0.3600000000000001 -0.6 0
0.43999999999999995 -0.6 0
0.52 -0.6 0
0.6000000000000001 -0.6 0
0.6799999999999999 -0.6 0
0.76 -0.6 0
0.8400000000000001 -0.6 0
0.9199999999999999 -0.6 0
1 -0.6 0
-1 -0.52 0
-0.92 -0.52 0
-0.84 -0.52 0
-0.76 -0.52 0
-0.6799999999999999 -0.52 0
-0.6 -0.52 0
-0.52 -0.52 0
-0.43999999999999995 -0.52 0
-0.36 -0.52 0
-0.28 -0.52 0
-0.19999999999999996 -0.52 0
-0.12 -0.52 0
-0.040000000000000036 -0.52 0
0.040000000000000036 -0.52 0
0.1200000000000001 -0.52 0
0.19999999999999996 -0.52 0
0.28 -0.52 0
0.3600000000000001 -0.52 0
0.43999999999999995 -0.52 0
0.52 -0.52 0
0.6000000000000001 -0.52 0
0.6799999999999999 -0.52 0
0.76 -0.52 0
0.8400000000000001 -0.52 0
0.9199999999999999 -0.52 0
1 -0.52 0
-1 -0.43999999999999995 0
-0.92 -0.43999999999999995 0
-0.84 -0.43999999999999995 0
-0.76 -0.43999999999999995 0
-0.6799999999999999 -0.43999999999999995 0
-0.6 -0.43999999999999995 0
-0.52 -0.43999999999999995 0
-0.43999999999999995 -0.43999999999999995 0
-0.36 -0.43999999999999995 0
-0.28 -0.43999999999999995 0
-0.19999999999999996 -0.43999999999999995 0
-0.12 -0.43999999999999995 0
-0.040000000000000036 -0.43999999999999995 0
0.040000000000000036 -0.43999999999999995 0
0.1200000000000001 -0.43999999999999995 0
0.19999999999999996 -0.43999999999999995 0
0.28 -0.43999999999999995 0
0.3600000000000001 -0.43999999999999995 0
0.43999999999999995 -0.43999999999999995 0
0.52 -0.43999999999999995 0
0.6000000000000001 -0.43999999999999995 0
0.6799999999999999 -0.43999999999999995 0
0.76 -0.43999999999999995 0
0.8400000000000001 -0.43999999999999995 0
0.9199999999999999 -0.43999999999999995 0
1 -0.43999999999999995 0
-1 -0.36 0
-0.92 -0.36 0
-0.84 -0.36 0
-0.76 -0.36 0
-0.6799999999999999 -0.36 0
-0.6 -0.36 0
-0.52 -0.36 0
-0.43999999999999995 -0.36 0
-0.36 -0.36 0
-0.28 -0.36 0
-0.19999999999999996 -0.36 0
-0.12 -0.36 0
-0.040000000000000036 -0.36 0
0.040000000000000036 -0.36 0
0.1200000000000001 -0.36 0
0.19999999999999996 -0.36 0
0.28 -0.36 0
0.3600000000000001 -0.36 0
0.43999999999999995 -0.36 0
0.52 -0.36 0
0.6000000000000001 -0.36 0
0.6799999999999999 -0.36 0
0.76 -0.36 0
0.8400000000000001 -0.36 0
0.9199999999999999 -0.36 0
1 -0.36 0
-1 -0.28 0
-0.92 -0.28 0
-0.84 -0.28 0
-0.76 -0.28 0
-0.6799999999999999 -0.28 0
-0.6 -0.28 0
-0.52 -0.28 0
-0.43999999999999995 -0.28 0
-0.36 -0.28 0
-0.28 -0.28 0
-0.19999999999999996 -0.28 0
-0.12 -0.28 0
-0.040000000000000036 -0.28 0
0.040000000000000036 -0.28 0
0.1200000000000001 -0.28 0
0.19999999999999996 -0.28 0
0.28 -0.28 0
0.3600000000000001 -0.28 0
0.43999999999999995 -0.28 0
0.52 -0.28 0
0.6000000000000001 -0.28 0
0.6799999999999999 -0.28 0
0.76 -0.28 0
0.8400000000000001 -0.28 0
0.9199999999999999 -0.28 0
1 -0.28 0
-1 -0.19999999999999996 0
-0.92 -0.19999999999999996 0
-0.84 -0.19999999999999996 0
-0.76 -0.19999999999999996 0
-0.6799999999999999 -0.19999999999999996 0
-0.6 -0.19999999999999996 0
-0.52 -0.19999999999999996 0
-0.43999999999999995 -0.19999999999999996 0
-0.36 -0.19999999999999996 0
-0.28 -0.19999999999999996 0
-0.19999999999999996 -0.19999999999999996 0
-0.12 -0.19999999999999996 0
-0.040000000000000036 -0.19999999999999996 0
0.040000000000000036 -0.19999999999999996 0
0.1200000000000001 -0.19999999999999996 0
0.19999999999999996 -0.19999999999999996 0
0.28 -0.19999999999999996 0
0.3600000000000001 -0.19999999999999996 0
0.43999999999999995 -0.19999999999999996 0
0.52 -0.19999999999999996 0
0.6000000000000001 -0.19999999999999996 0
0.6799999999999999 -0.19999999999999996 0
0.76 -0.19999999999999996 0
0.8400000000000001 -0.19999999999999996 0
0.9199999999999999 -0.19999999999999996 0
1 -0.19999999999999996 0
-1 -0.12 0
-0.92 -0.12 0
-0.84 -0.12 0
-0.76 -0.12 0
-0.6799999999999999 -0.12 0
-0.6 -0.12 0
-0.52 -0.12 0
-0.43999999999999995 -0.12 0
-0.36 -0.12 0
-0.28 -0.12 0
-0.19999999999999996 -0.12 0
-0.12 -0.12 0
-0.040000000000000036 -0.12 0
0.040000000000000036 -0.12 0
0.1200000000000001 -0.12 0
0.19999999999999996 -0.12 0
0.28 -0.12 0
0.3600000000000001 -0.12 0
0.43999999999999995 -0.12 0
0.52 -0.12 0
0.6000000000000001 -0.12 0
0.6799999999999999 -0.12 0
0.76 -0.12 0
0.8400000000000001 -0.12 0
0.9199999999999999 -0.12 0
1 -0.12 0
-1 -0.040000000000000036 0
-0.92 -0.040000000000000036 0
-0.84 -0.040000000000000036 0
-0.76 -0.040000000000000036 0
-0.6799999999999999 -0.040000000000000036 0
-0.6 -0.040000000000000036 0
-0.52 -0.040000000000000036 0
-0.43999999999999995 -0.040000000000000036 0
-0.36 -0.040000000000000036 0
-0.28 -0.040000000000000036 0
-0.19999999999999996 -0.040000000000000036 0
-0.12 -0.040000000000000036 0
-0.040000000000000036 -0.040000000000000036 0
0.040000000000000036 -0.040000000000000036 0
0.1200000000000001 -0.040000000000000036 0
0.19999999999999996 -0.040000000000000036 0
0.28 -0.040000000000000036 0
0.3600000000000001 -0.040000000000000036 0
0.43999999999999995 -0.040000000000000036 0
0.52 -0.040000000000000036 0
0.6000000000000001 -0.040000000000000036 0
0.6799999999999999 -0.040000000000000036 0
0.76 -0.040000000000000036 0
0.8400000000000001 -0.040000000000000036 0
0.9199999999999999 -0.040000000000000036 0
1 -0.040000000000000036 0
-1 0.040000000000000036 0
-0.92 0.040000000000000036 0
-0.84 0.040000000000000036 0
-0.76 0.040000000000000036 0
-0.6799999999999999 0.040000000000000036 0
-0.6 0.040000000000000036 0
-0.52 0.040000000000000036 0
-0.43999999999999995 0.040000000000000036 0
-0.36 0.040000000000000036 0
-0.28 0.040000000000000036 0
-0.19999999999999996 0.040000000000000036 0
-0.12 0.040000000000000036 0
-0.040000000000000036 0.040000000000000036 0
0.040000000000000036 0.040000000000000036 0
0.1200000000000001 0.040000000000000036 0
0.19999999999999996 0.040000000000000036 0
0.28 0.040000000000000036 0
0.3600000000000001 0.040000000000000036 0
0.43999999999999995 0.040000000000000036 0
0.52 0.040000000000000036 0
0.6000000000000001 0.040000000000000036 0
0.6799999999999999 0.040000000000000036 0
0.76 0.040000000000000036 0
0.8400000000000001 0.040000000000000036 0
0.9199999999999999 0.040000000000000036 0
1 0.040000000000000036 0
-1 0.1200000000000001 0
-0.92 0.1200000000000001 0
-0.84 0.1200000000000001 0
-0.76 0.1200000000000001 0
-0.6799999999999999 0.1200000000000001 0
-0.6 0.1200000000000001 0
-0.52 0.1200000000000001 0
-0.43999999999999995 0.1200000000000001 0
-0.36 0.1200000000000001 0
-0.28 0.1200000000000001 0
-0.19999999999999996 0.1200000000000001 0
-0.12 0.1200000000000001 0
-0.040000000000000036 0.1200000000000001 0
0.040000000000000036 0.1200000000000001 0
0.1200000000000001 0.1200000000000001 0
0.19999999999999996 0.1200000000000001 0
0.28 0.1200000000000001 0
[...]
POINT_DATA 676
SCALARS phi1 double 1
LOOKUP_TABLE default
1.2401434992741867
1.2001434992741868
1.1609157175503755
1.1256909506947848
1.095187166513904
1.0698082739058334
1.0487479207218748
1.0283968105745953
1.012719112093773
1.0031948963187562
1
1
1
1
1
1
1.0031948963187562
1.012719112093773
1.0283968105745953
1.0487479207218748
1.0698082739058334
1.095187166513904
1.1256909506947848
1.1609157175503755
1.2001434992741866
1.2401434992741867
1.171421795944093
1.1308614669714314
1.0908639688493993
1.0532991083991707
1.0206340308725323
0.9933522226258611
0.9714738546187495
0.950789145920377
0.9338094023943002
0.9234717104492156
0.92
0.92
0.92
0.92
0.92
0.92
0.9234717104492156
0.9338094023943002
0.950789145920377
0.9714738546187495
0.9933522226258612
1.0206340308725323
1.0532991083991707
1.0908639688493993
1.1308614669714314
1.171421795944093
1.104213710878127
1.0616021566351586
1.0215794346686764
0.9820885433772496
0.9469702847784996
0.9175006994406587
0.8941997885156239
0.8734942649074222
0.8551023330572779
0.8438009243891593
0.84
0.84
0.84
0.84
0.84
0.84
0.8438009243891593
0.855102333057278
0.8734942649074222
0.8941997885156239
0.9175006994406587
0.9469702847784996
0.9820885433772496
1.0215794346686764
1.0616021566351586
1.104213710878127
1.038819914407499
0.9934072851810478
0.9522974023659214
0.9122974023659215
0.8744207314169951
0.8424170159442754
0.8170197316913973
0.7962201988042968
0.776659513557904
0.764198926981712
0.76
0.76
0.76
0.76
0.76
0.76
0.764198926981712
0.776659513557904
0.7962201988042968
0.8170197316913973
0.8424170159442755
0.8744207314169951
0.9122974023659214
0.9522974023659214
0.9934072851810478
1.038819914407499
0.9756053043357048
0.9271013588217522
0.8831920228411911
0.8430153700631662
0.8032873152304798
0.768326313509317
0.7403918808654254
0.7189461327011714
0.6985699678629191
0.6846897107449476
0.6799999999999999
0.6799999999999999
0.6799999999999999
0.6799999999999999
0.6799999999999999
0.6799999999999999
0.6846897107449476
0.6985699678629191
0.7189461327011712
0.7403918808654254
0.768326313509317
0.8032873152304798
0.8430153700631662
0.8831920228411912
0.9271013588217522
0.9756053043357048
0.9150216418895908
0.863119820654988
0.8157738929928284
0.773733337760411
0.733733337760411
0.6955459864805325
0.6645592769120013
0.6416720665980459
0.6209669878504009
0.6053098380168622
0.6
0.6
0.6
0.6
0.6
0.6
0.6053098380168622
0.6209669878504009
0.6416720665980459
0.6645592769120013
0.6955459864805325
0.733733337760411
0.7737333377604112
0.8157738929928285
0.863119820654988
0.9150216418895908
0.8576266672653565
0.8020191519445521
0.7508301670597916
0.705022807750367
0.6644513054576561
0.6245343181823851
0.5898287275202538
0.5643980004949205
0.5436924768867188
0.5261178575186363
0.52
0.52
0.52
0.52
0.52
0.52
0.5261178575186363
0.5436924768867188
0.5643980004949205
0.5898287275202538
0.6245343181823853
0.6644513054576561
0.705022807750367
0.7508301670597918
0.8020191519445521
0.8576266672653565
0.8041034732439862
0.7445089760131963
0.6890608355184571
0.638839615808671
0.595169273154901
0.5551692731549009
0.5166786458588368
0.48745424021865524
0.46641841078359325
0.44721359549995787
0.43999999999999995
0.43999999999999995
0.43999999999999995
0.43999999999999995
0.43999999999999995
0.43999999999999995
0.44721359549995787
0.4664184107835933
0.48745424021865524
0.5166786458588368
0.5551692731549009
0.595169273154901
0.638839615808671
0.6890608355184572
0.7445089760131963
0.8041034732439862
0.7552756390625887
0.691485726998452
0.6313982343368992
0.576172673774911
0.5273387617899011
0.4858872408521458
0.44588724085214587
0.4116679870787941
0.3891443446804679
0.3687817782917155
0.36
0.36
0.36
0.36
0.36
0.36
0.3687817782917155
0.3891443446804679
0.4116679870787941
0.44588724085214587
0.48588724085214585
0.5273387617899011
0.576172673774911
0.6313982343368992
0.691485726998452
0.7552756390625887
0.7121096729014159
0.6440585423088009
0.5790704841399824
0.5182989921688925
0.46340593971642813
0.4167208713823222
0.3766052085493908
0.3378304705971116
0.31187027857734245
0.2911647549691408
0.28
0.28
0.28
0.28
0.28
0.28
0.2911647549691408
0.3118702785773425
0.3378304705971116
0.3766052085493908
0.4167208713823223
0.46340593971642813
0.5182989921688925
0.5790704841399824
0.6440585423088009
0.7121096729014159
0.6756915579745844
0.6035480935263544
0.5336492489271143
0.46700400486682053
0.40522087834022746
0.3508777278825226
0.30732317624663563
0.2673231762466356
0.23461273486929607
0.21389068886601525
0.19999999999999996
0.19999999999999996
0.19999999999999996
0.19999999999999996
0.19999999999999996
0.19999999999999996
0.21389068886601525
0.23461273486929612
0.2673231762466356
0.30732317624663563
0.35087772788252264
0.40522087834022746
0.46700400486682053
0.5336492489271144
0.6035480935263544
0.6756915579745844
0.6471614766010727
0.5714273326308926
0.4970316047887024
0.4246782733317176
0.355616163188887
0.29218842414161666
0.23892529142712665
0.1980411439438805
0.15906612034374354
0.13661662276288983
0.12
0.12
0.12
0.12
0.12
0.12
0.13661662276288983
0.1590661203437436
0.1980411439438805
0.23892529142712665
0.2921884241416167
0.355616163188887
0.4246782733317176
0.4970316047887025
0.5714273326308926
0.6471614766010727
0.6275961058474155
0.5491703667861335
0.47127413618529135
0.3942214239718191
0.31862478057982996
0.2458311828892359
0.17928800897410033
0.12875911164112544
0.08875911164112547
0.05934255665976442
0.040000000000000036
0.040000000000000036
0.040000000000000036
0.040000000000000036
0.040000000000000036
0.040000000000000036
0.05934255665976442
0.08875911164112553
0.12875911164112544
0.17928800897410033
0.245831182889236
0.31862478057982996
0.3942214239718191
0.47127413618529146
0.5491703667861335
0.6275961058474155
0.6178476894455461
0.5380027760470908
0.45821196701477823
0.37850947992980094
0.2989659614034756
0.21975410294026504
0.14143226449525845
0.06718857880200213
0.01947707933837031
0.01793150944336111
0.038637033051562776
0.040000000000000036
0.040000000000000036
0.040000000000000036
0.040000000000000036
0.038637033051562776
0.01793150944336111
0.019477079338370364
0.06718857880200213
0.14143226449525845
0.21975410294026515
0.2989659614034756
0.37850947992980094
0.45821196701477834
0.5380027760470908
0.6178476894455461
0.618380677763754
0.538614781000982
0.4589303890503568
0.37937886297880125
0.30006589502351666
0.22124818877776217
0.14374275883889395
0.07192496367599036
0.049843957316495845
0.08980495296438482
0.11591109915468831
0.1200000000000001
0.1200000000000001
0.1200000000000001
0.1200000000000001
0.1159110991546883
0.08980495296438483
0.049843957316495796
0.07192496367599036
0.14374275883889395
0.22124818877776228
0.30006589502351666
0.37937886297880125
0.458930389050357
0.538614781000982
0.618380677763754
0.6291689422642535
0.5509671293199763
0.47336666261184
0.39672057793042165
0.32171172909084894
0.24981924728851446
0.184718369408611
0.13649943471733567
0.12626684188387824
0.1590869852671398
0.19318516525781362
0.19999999999999996
0.19999999999999996
0.19999999999999996
0.19999999999999996
0.19318516525781362
0.1590869852671398
0.1262668418838782
0.13649943471733567
0.184718369408611
0.24981924728851454
0.32171172909084894
0.39672057793042165
0.4733666626118401
0.5509671293199763
0.6291689422642535
0.6497018186739815
0.5743027710793803
0.5003347804726663
0.42853951070094737
0.36021845026731136
0.29777265084987176
0.24572295634583222
0.21187494178527078
0.20543176637922383
0.228721293977767
0.268369017569895
0.28
0.28
0.28
0.28
0.268369017569895
0.228721293977767
0.20543176637922383
0.21187494178527078
0.24572295634583222
0.2977726508498718
0.36021845026731136
0.42853951070094737
0.5003347804726664
0.5743027710793803
0.6497018186739815
0.6790959788326234
0.6073570351513308
0.5379533323895215
0.47191631409622525
0.4108725193917734
0.35738976884141405
0.31533897087688906
0.2897410675670116
0.28506333667458483
0.30227855629737255
0.3376510498726501
0.3600000000000001
0.3600000000000001
0.3600000000000001
0.3600000000000001
0.33765104987265016
0.30227855629737255
0.28506333667458483
0.2897410675670116
0.31533897087688906
0.35738976884141405
0.4108725193917734
0.47191631409622525
0.5379533323895216
0.6073570351513308
0.6790959788326234
0.7162612957189565
0.6486458690427115
0.5841683688007684
0.5239884567321371
0.4697607076690246
0.4237762878582035
0.38896987265346794
0.3685224301358483
0.3648561376685437
0.37845900818395567
0.40760574156500734
0.43999999999999995
0.43999999999999995
0.43999999999999995
0.43999999999999995
0.40760574156500734
0.37845900818395567
0.36485613766854363
0.3685224301358483
0.38896987265346794
0.42377628785820354
0.4697607076690246
0.5239884567321371
0.5841683688007685
0.6486458690427115
0.7162612957189565
0.7600586418319037
0.6967067953626792
0.6371119041312211
0.5824283630343619
0.5341666572784776
0.4942117333989943
0.4647111544932129
0.4477361687328721
0.4447233932151164
0.4559496859895214
0.48041787626515237
0.5162151144781603
0.52
0.52
0.5162151144781602
0.48041787626515237
0.4559496859895214
0.44472339321511634
0.4477361687328721
0.4647111544932129
0.4942117333989944
0.5341666572784776
0.5824283630343619
0.6371119041312212
0.6967067953626792
0.7600586418319037
0.8094121535421356
0.7502394644264548
0.6952484977790818
0.6455088638781392
0.6023229308489111
0.5671896796554027
0.5416782738755307
0.527187416456378
0.5246311006327462
0.5341806917441914
0.5552118794779871
0.5864907934440703
0.6000000000000001
0.6000000000000001
0.5864907934440702
0.5552118794779871
0.5341806917441914
0.5246311006327462
0.527187416456378
0.5416782738755307
0.5671896796554027
0.6023229308489111
0.6455088638781392
0.6952484977790819
0.7502394644264548
0.8094121535421356
0.8633695208774036
0.8081572552797217
0.757383237827739
0.7119976043664793
0.6730912332698902
0.6418434606552893
0.6194144393434285
0.6067828832031356
0.6045632200435999
0.6128685884516046
0.6312837130734789
0.6589615664612122
0.6799999999999999
0.6799999999999999
0.6589615664612121
0.6312837130734789
0.6128685884516046
0.6045632200435999
0.6067828832031356
0.6194144393434285
0.6418434606552893
0.6730912332698902
0.7119976043664793
0.7573832378277391
0.8081572552797217
0.8633695208774036
0.9211220466683213
0.8695844090941449
0.8226106395013313
0.7810246371926851
0.7457283041317001
0.7176502792198423
0.6976626283136382
0.686472404854463
0.6845111995488795
0.6918575012161262
0.7082217319951416
0.7330001646325698
0.76
0.76
0.7330001646325697
0.7082217319951416
0.6918575012161262
0.6845111995488795
0.686472404854463
0.6976626283136382
0.7176502792198423
0.7457283041317001
0.7810246371926851
0.8226106395013314
0.8695844090941449
0.9211220466683213
0.9820003666683617
0.933828645854245
0.8902511777577994
0.8519732267978408
0.8197375182712459
0.7942800630399062
0.7762680195807717
0.7662266361234316
0.7644700632374074
0.7710549249355598
0.7857715424654662
0.8081758079958432
0.8376510946157177
0.8376510946157177
0.8081758079958432
0.7857715424654662
0.7710549249355598
0.7644700632374074
0.7662266361234316
0.7762680195807717
0.7942800630399063
0.8197375182712459
0.8519732267978408
0.8902511777577995
0.933828645854245
0.9820003666683617
1.0454585670485255
1.000347357219647
0.9597947982654982
0.9244010355136371
0.8947784609275419
0.8715157564961385
0.8551321146479138
0.846027276855415
0.8444367192777473
0.8504026061494292
0.8637683788070256
0.8841985251673368
0.9112180044255433
0.9112180044255433
0.8841985251673368
0.8637683788070256
0.8504026061494292
0.8444367192777473
0.846027276855415
0.8551321146479138
0.8715157564961387
0.8947784609275419
0.9244010355136371
0.9597947982654983
1.000347357219647
1.0454585670485255
1.1110546839348259
1.0687159259479069
1.0308564158290272
0.9979860568850871
0.9706118634233875
0.9492094653443973
0.9341893966324883
0.9258623269480991
0.9244091454236727
0.9298620800011693
0.9421012193523991
0.9608672786532244
0.9857875769493291
0.9857875769493291
0.9608672786532244
0.9421012193523991
0.9298620800011693
0.9244091454236727
0.9258623269480991
0.9341893966324883
0.9492094653443973
0.9706118634233875
0.9979860568850871
1.0308564158290272
1.0687159259479069
1.1110546839348259

SCALARS phi2 double 1
LOOKUP_TABLE default
1.2401492364770155
1.202364898196758
1.1688424051585726
1.139957800876003
1.1160712376274324
1.0975091011651819
1.0845448108868445
1.0773804650645737
1.0761319092861867
1.0808196453919172
1.09136718181659
1.107607125847185
1.129293923169977
1.129293923169977
1.107607125847185
1.09136718181659
1.0808196453919172
1.0761319092861867
1.0773804650645737
1.0845448108868445
1.0975091011651819
1.1160712376274324
1.139957800876003
1.1688424051585726
1.202364898196758
1.2401492364770155
1.171421795944093
1.1313444407845297
1.0956511595280845
1.064782927669491
1.0391698141966925
1.0192080859268948
1.0052344712055694
0.9975006575341777
0.9961519871296212
1.001214263353988
1.0125913394971564
1.030073997587465
1.053358277219578
1.053358277219578
1.030073997587465
1.0125913394971564
1.001214263353988
0.9961519871296212
0.9975006575341777
1.0052344712055694
1.0192080859268948
1.0391698141966925
1.064782927669491
1.0956511595280847
1.1313444407845297
1.171421795944093
1.104213710878127
1.0616021566351586
1.02347953504386
0.9903643664504352
0.9627734925806526
0.9411928695528479
0.9260427837731365
0.9176417912559761
0.9161755709145777
0.9216772192160488
0.9340236164589227
0.9529487582153516
0.9780708335623535
0.9780708335623535
0.9529487582153516
0.9340236164589227
0.9216772192160488
0.9161755709145777
0.9176417912559761
0.9260427837731365
0.9411928695528479
0.9627734925806526
0.9903643664504352
1.02347953504386
1.0616021566351586
1.104213710878127
1.038819914407499
0.9934072851810478
0.9525593178022855
0.9168862926301886
0.8870127920691493
0.8635409156348551
0.8470030298981581
0.8378098545241851
0.8362036665902706
0.8422278739748457
0.855721339795476
0.8763391073451765
0.9035936314205169
0.9035936314205169
0.8763391073451765
0.855721339795476
0.8422278739748457
0.8362036665902706
0.8378098545241851
0.8470030298981581
0.8635409156348551
0.8870127920691493
0.9168862926301886
0.9525593178022856
0.9934072851810478
1.038819914407499
0.9756053043357048
0.9271013588217522
0.8831920228411911
0.8445942036809697
0.8120656307052204
0.7863598465421817
0.7681621104526177
0.7580133558296951
0.7562377055512188
0.7628936275645171
0.7777646859170994
0.8003931073796802
0.8301447741340521
0.8301447741340521
0.8003931073796802
0.7777646859170994
0.7628936275645171
0.7562377055512188
0.7580133558296951
0.7681621104526177
0.7863598465421818
0.8120656307052204
0.8445942036809697
0.8831920228411912
0.9271013588217522
0.9756053043357048
0.9150216418895908
0.863119820654988
0.8157738929928284
0.773820563289611
0.7381798451942636
0.7098032850953869
0.6895882272874003
0.6782648029306514
0.6762797960724034
0.6837145473491899
0.7002690925194998
0.7253192549624337
0.7580232458839478
0.7580232458839478
0.7253192549624337
0.7002690925194998
0.6837145473491899
0.6762797960724034
0.6782648029306514
0.6895882272874003
0.7098032850953869
0.7381798451942636
0.773820563289611
0.8157738929928285
0.863119820654988
0.9150216418895908
0.8576266672653565
0.8020191519445521
0.7508301670597916
0.705022807750367
0.6657089297353513
0.6340974679105437
0.6113843459655629
0.5985833594186488
0.5963331768852806
0.6047515833259699
0.6234065264467831
0.6514191560720484
0.6876468109275253
0.6876468109275253
0.6514191560720484
0.6234065264467831
0.6047515833259699
0.5963331768852806
0.5985833594186488
0.6113843459655629
0.6340974679105438
0.6657089297353513
0.705022807750367
0.7508301670597918
0.8020191519445521
0.8576266672653565
0.8041034732439862
0.7445089760131963
0.6890608355184571
0.638839615808671
0.5951699542212682
0.5595877894387283
0.5337131380902093
0.5189999358875441
0.5164030917146517
0.5261020555116916
0.5474436888802384
0.5791423073614803
0.6196103871443372
0.6196103871443372
0.5791423073614803
0.5474436888802384
0.5261020555116916
0.5164030917146517
0.5189999358875441
0.5337131380902093
0.5595877894387284
0.5951699542212682
0.638839615808671
0.6890608355184572
0.7445089760131963
0.8041034732439862
0.7552756390625887
0.691485726998452
0.6313982343368992
0.576172673774911
0.5273387617899011
0.4868237765016025
0.45684637357481384
0.4395677748989733
0.4364986236070059
0.44793109748262255
0.47281443270395507
0.5091804272105703
0.5547755646525134
0.5547755646525134
0.5091804272105703
0.47281443270395507
0.44793109748262255
0.43649862360700586
0.4395677748989733
0.45684637357481384
0.4868237765016026
0.5273387617899011
0.576172673774911
0.6313982343368992
0.691485726998452
0.7552756390625887
0.7121096729014159
0.6440585423088009
0.5790704841399824
0.5182989921688925
0.46340593971642813
0.4167208713823222
0.38127090674062464
0.36038690876333757
0.3566369914761652
0.3705417161000181
0.4002653907740745
0.44263258209569106
0.49440350161975466
0.49440350161975466
0.442632582095691
0.4002653907740745
0.3705417161000181
0.3566369914761652
0.36038690876333757
0.38127090674062464
0.4167208713823223
0.46340593971642813
0.5182989921688925
0.5790704841399824
0.6440585423088009
0.7121096729014159
0.6756915579745844
0.6035480935263544
0.5336492489271143
0.46700400486682053
0.40522087834022746
0.3508777278825226
0.3079389543483866
0.2816693438881019
0.27685526718401066
0.29455060456347065
0.33116654168240217
0.3812905690035597
0.4403336436070203
0.4403336436070203
0.38129056900355957
0.33116654168240217
0.29455060456347065
0.27685526718401066
0.2816693438881019
0.3079389543483866
0.35087772788252264
0.40522087834022746
0.46700400486682053
0.5336492489271144
0.6035480935263544
0.6756915579745844
0.6471614766010727
0.5714273326308926
0.4970316047887024
0.4246782733317176
0.355616163188887
0.29218842414161666
0.23892529142712665
0.20395223598851156
0.19725043535031714
0.2214022446296915
0.2681980119393913
0.3280874781051816
0.39516150238933206
0.39516150238933206
0.32808747810518146
0.2681980119393913
0.2214022446296915
0.1972504353503171
0.20395223598851156
0.23892529142712665
0.2921884241416167
0.355616163188887
0.4246782733317176
0.4970316047887025
0.5714273326308926
0.6471614766010727
0.6275961058474155
0.5491703667861335
0.47127413618529135
0.3942214239718191
0.31862478057982996
0.2458311828892359
0.17928800897410033
0.1290558400192459
0.11818049553225489
0.15517038765636126
0.21676962168763772
0.2875765786147712
0.3622312910958326
0.3622312910958326
0.2875765786147711
0.21676962168763772
0.15517038765636126
0.11818049553225488
0.1290558400192459
0.17928800897410033
0.245831182889236
0.31862478057982996
0.3942214239718191
0.47127413618529146
0.5491703667861335
0.6275961058474155
0.6178476894455461
0.5380027760470908
0.45821196701477823
0.37850947992980094
0.2989659614034756
0.21975410294026504
0.14143226449525845
0.06718857880200213
0.042726160635013506
0.10925540940285333
0.1866760942514098
0.2656297871966496
0.3450657959394316
0.3450657959394316
0.2656297871966495
0.1866760942514098
0.10925540940285333
0.042726160635013444
0.06718857880200213
0.14143226449525845
0.21975410294026515
0.2989659614034756
0.37850947992980094
0.45821196701477834
0.5380027760470908
0.6178476894455461
0.618380677763754
0.538614781000982
0.4589303890503568
0.37937886297880125
0.30006589502351666
0.22124818877776217
0.14374275883889395
0.07192496367599036
0.049843957316495845
0.11223029787960458
0.18843263900747376
0.2668671563240726
0.34601921739359087
0.34601921739359087
0.26686715632407254
0.18843263900747376
0.11223029787960458
0.049843957316495796
0.07192496367599036
0.14374275883889395
0.22124818877776228
0.30006589502351666
0.37937886297880125
0.458930389050357
0.538614781000982
0.618380677763754
0.6291689422642535
0.5509671293199763
0.47336666261184
0.39672057793042165
0.32171172909084894
0.24981924728851446
0.184718369408611
0.13649943471733567
0.12626684188387824
0.1614141723657016
0.2212820704930261
0.2909930830842147
0.3649495774542461
0.3649495774542461
0.29099308308421457
0.2212820704930261
0.1614141723657016
0.1262668418838782
0.13649943471733567
0.184718369408611
0.24981924728851454