# vtk DataFile Version 4.1
Header:
ASCII

DATASET UNSTRUCTURED_GRID
POINTS 676 double
-1 -1 0
-0.92 -1 0
-0.84 -1 0
-0.76 -1 0
-0.6799999999999999 -1 0
-0.6 -1 0
-0.52 -1 0
-0.43999999999999995 -1 0
-0.36 -1 0
-0.28 -1 0
-0.19999999999999996 -1 0
-0.12 -1 0
-0.040000000000000036 -1 0
0.040000000000000036 -1 0
0.1200000000000001 -1 0
0.19999999999999996 -1 0
0.28 -1 0
0.3600000000000001 -1 0
0.43999999999999995 -1 0
0.52 -1 0
0.6000000000000001 -1 0
0.6799999999999999 -1 0
0.76 -1 0
0.8400000000000001 -1 0
0.9199999999999999 -1 0
1 -1 0
-1 -0.92 0
-0.92 -0.92 0
-0.84 -0.92 0
-0.76 -0.92 0
-0.6799999999999999 -0.92 0
-0.6 -0.92 0
-0.52 -0.92 0
-0.43999999999999995 -0.92 0
-0.36 -0.92 0
-0.28 -0.92 0
-0.19999999999999996 -0.92 0
-0.12 -0.92 0
-0.040000000000000036 -0.92 0
0.040000000000000036 -0.92 0
0.1200000000000001 -0.92 0
0.19999999999999996 -0.92 0
0.28 -0.92 0
0.3600000000000001 -0.92 0
0.43999999999999995 -0.92 0
0.52 -0.92 0
0.6000000000000001 -0.92 0
0.6799999999999999 -0.92 0
0.76 -0.92 0
0.8400000000000001 -0.92 0
0.9199999999999999 -0.92 0
1 -0.92 0
-1 -0.84 0
-0.92 -0.84 0
-0.84 -0.84 0
-0.76 -0.84 0
-0.6799999999999999 -0.84 0
-0.6 -0.84 0
-0.52 -0.84 0
-0.43999999999999995 -0.84 0
-0.36 -0.84 0
-0.28 -0.84 0
-0.19999999999999996 -0.84 0
-0.12 -0.84 0
-0.040000000000000036 -0.84 0
0.040000000000000036 -0.84 0
0.1200000000000001 -0.84 0
0.19999999999999996 -0.84 0
0.28 -0.84 0
0.3600000000000001 -0.84 0
0.43999999999999995 -0.84 0
0.52 -0.84 0
0.6000000000000001 -0.84 0
0.6799999999999999 -0.84 0
0.76 -0.84 0
0.8400000000000001 -0.84 0
0.9199999999999999 -0.84 0
1 -0.84 0
-1 -0.76 0
-0.92 -0.76 0
-0.84 -0.76 0
-0.76 -0.76 0
-0.6799999999999999 -0.76 0
-0.6 -0.76 0
-0.52 -0.76 0
-0.43999999999999995 -0.76 0
-0.36 -0.76 0
-0.28 -0.76 0
-0.19999999999999996 -0.76 0
-0.12 -0.76 0
-0.040000000000000036 -0.76 0
0.040000000000000036 -0.76 0
0.1200000000000001 -0.76 0
0.19999999999999996 -0.76 0
0.28 -0.76 0
0.3600000000000001 -0.76 0
0.43999999999999995 -0.76 0
0.52 -0.76 0
0.6000000000000001 -0.76 0
0.6799999999999999 -0.76 0
0.76 -0.76 0
0.8400000000000001 -0.76 0
0.9199999999999999 -0.76 0
1 -0.76 0
-1 -0.6799999999999999 0
-0.92 -0.6799999999999999 0
-0.84 -0.6799999999999999 0
-0.76 -0.6799999999999999 0
-0.6799999999999999 -0.6799999999999999 0
-0.6 -0.6799999999999999 0
-0.52 -0.6799999999999999 0
-0.43999999999999995 -0.6799999999999999 0
-0.36 -0.6799999999999999 0
-0.28 -0.6799999999999999 0
-0.19999999999999996 -0.6799999999999999 0
-0.12 -0.6799999999999999 0
-0.040000000000000036 -0.6799999999999999 0
0.040000000000000036 -0.6799999999999999 0
0.1200000000000001 -0.6799999999999999 0
0.19999999999999996 -0.6799999999999999 0
0.28 -0.6799999999999999 0
0.3600000000000001 -0.6799999999999999 0
0.43999999999999995 -0.6799999999999999 0
0.52 -0.6799999999999999 0
0.6000000000000001 -0.6799999999999999 0
0.6799999999999999 -0.6799999999999999 0
0.76 -0.6799999999999999 0
0.8400000000000001 -0.6799999999999999 0
0.9199999999999999 -0.6799999999999999 0
1 -0.6799999999999999 0
-1 -0.6 0
-0.92 -0.6 0
-0.84 -0.6 0
-0.76 -0.6 0
-0.6799999999999999 -0.6 0
-0.6 -0.6 0
-0.52 -0.6 0
-0.43999999999999995 -0.6 0
-0.36 -0.6 0
-0.28 -0.6 0
-0.19999999999999996 -0.6 0
-0.12 -0.6 0
-0.040000000000000036 -0.6 0
0.040000000000000036 -0.6 0
0.1200000000000001 -0.6 0
0.19999999999999996 -0.6 0
0.28 -0.6 0
0.3600000000000001 -0.6 0
0.43999999999999995 -0.6 0
0.52 -0.6 0
0.6000000000000001 -0.6 0
0.6799999999999999 -0.6 0
0.76 -0.6 0
0.8400000000000001 -0.6 0
0.9199999999999999 -0.6 0
1 -0.6 0
-1 -0.52 0
-0.92 -0.52 0
-0.84 -0.52 0
-0.76 -0.52 0
-0.6799999999999999 -0.52 0
-0.6 -0.52 0
-0.52 -0.52 0
-0.43999999999999995 -0.52 0
-0.36 -0.52 0
-0.28 -0.52 0
-0.19999999999999996 -0.52 0
-0.12 -0.52 0
-0.040000000000000036 -0.52 0
0.040000000000000036 -0.52 0
0.1200000000000001 -0.52 0
0.19999999999999996 -0.52 0
0.28 -0.52 0
0.3600000000000001 -0.52 0
0.43999999999999995 -0.52 0
0.52 -0.52 0
0.6000000000000001 -0.52 0
0.6799999999999999 -0.52 0
0.76 -0.52 0
0.8400000000000001 -0.52 0
0.9199999999999999 -0.52 0
1 -0.52 0
-1 -0.43999999999999995 0
-0.92 -0.43999999999999995 0
-0.84 -0.43999999999999995 0
-0.76 -0.43999999999999995 0
-0.6799999999999999 -0.43999999999999995 0
-0.6 -0.43999999999999995 0
-0.52 -0.43999999999999995 0
-0.43999999999999995 -0.43999999999999995 0
-0.36 -0.43999999999999995 0
-0.28 -0.43999999999999995 0
-0.19999999999999996 -0.43999999999999995 0
-0.12 -0.43999999999999995 0
-0.040000000000000036 -0.43999999999999995 0
0.040000000000000036 -0.43999999999999995 0
0.1200000000000001 -0.43999999999999995 0
0.19999999999999996 -0.43999999999999995 0
0.28 -0.43999999999999995 0
0.3600000000000001 -0.43999999999999995 0
0.43999999999999995 -0.43999999999999995 0
0.52 -0.43999999999999995 0
0.6000000000000001 -0.43999999999999995 0
0.6799999999999999 -0.43999999999999995 0
0.76 -0.43999999999999995 0
0.8400000000000001 -0.43999999999999995 0
0.9199999999999999 -0.43999999999999995 0
1 -0.43999999999999995 0
-1 -0.36 0
-0.92 -0.36 0
-0.84 -0.36 0
-0.76 -0.36 0
-0.6799999999999999 -0.36 0
-0.6 -0.36 0
-0.52 -0.36 0
-0.43999999999999995 -0.36 0
-0.36 -0.36 0
-0.28 -0.36 0
-0.19999999999999996 -0.36 0
-0.12 -0.36 0
-0.040000000000000036 -0.36 0
0.040000000000000036 -0.36 0
0.1200000000000001 -0.36 0
0.19999999999999996 -0.36 0
0.28 -0.36 0
0.3600000000000001 -0.36 0
0.43999999999999995 -0.36 0
0.52 -0.36 0
0.6000000000000001 -0.36 0
0.6799999999999999 -0.36 0
0.76 -0.36 0
0.8400000000000001 -0.36 0
0.9199999999999999 -0.36 0
1 -0.36 0
-1 -0.28 0
-0.92 -0.28 0
-0.84 -0.28 0
-0.76 -0.28 0
-0.6799999999999999 -0.28 0
-0.6 -0.28 0
-0.52 -0.28 0
-0.43999999999999995 -0.28 0
-0.36 -0.28 0
-0.28 -0.28 0
-0.19999999999999996 -0.28 0
-0.12 -0.28 0
-0.040000000000000036 -0.28 0
0.040000000000000036 -0.28 0
0.1200000000000001 -0.28 0
0.19999999999999996 -0.28 0
0.28 -0.28 0
0.3600000000000001 -0.28 0
0.43999999999999995 -0.28 0
0.52 -0.28 0
0.6000000000000001 -0.28 0
0.6799999999999999 -0.28 0
0.76 -0.28 0
0.8400000000000001 -0.28 0
0.9199999999999999 -0.28 0
1 -0.28 0
-1 -0.19999999999999996 0
-0.92 -0.19999999999999996 0
-0.84 -0.19999999999999996 0
-0.76 -0.19999999999999996 0
-0.6799999999999999 -0.19999999999999996 0
-0.6 -0.19999999999999996 0
-0.52 -0.19999999999999996 0
-0.43999999999999995 -0.19999999999999996 0
-0.36 -0.19999999999999996 0
-0.28 -0.19999999999999996 0
-0.19999999999999996 -0.19999999999999996 0
-0.12 -0.19999999999999996 0
-0.040000000000000036 -0.19999999999999996 0
0.040000000000000036 -0.19999999999999996 0
0.1200000000000001 -0.19999999999999996 0
0.19999999999999996 -0.19999999999999996 0
0.28 -0.19999999999999996 0
0.3600000000000001 -0.19999999999999996 0
0.43999999999999995 -0.19999999999999996 0
0.52 -0.19999999999999996 0
0.6000000000000001 -0.19999999999999996 0
0.6799999999999999 -0.19999999999999996 0
0.76 -0.19999999999999996 0
0.8400000000000001 -0.19999999999999996 0
0.9199999999999999 -0.19999999999999996 0
1 -0.19999999999999996 0
-1 -0.12 0
-0.92 -0.12 0
-0.84 -0.12 0
-0.76 -0.12 0
-0.6799999999999999 -0.12 0
-0.6 -0.12 0
-0.52 -0.12 0
-0.43999999999999995 -0.12 0
-0.36 -0.12 0
-0.28 -0.12 0
-0.19999999999999996 -0.12 0
-0.12 -0.12 0
-0.040000000000000036 -0.12 0
0.040000000000000036 -0.12 0
0.1200000000000001 -0.12 0
0.19999999999999996 -0.12 0
0.28 -0.12 0
0.3600000000000001 -0.12 0
0.43999999999999995 -0.12 0
0.52 -0.12 0
0.6000000000000001 -0.12 0
0.6799999999999999 -0.12 0
0.76 -0.12 0
0.8400000000000001 -0.12 0
0.9199999999999999 -0.12 0
1 -0.12 0
-1 -0.040000000000000036 0
-0.92 -0.040000000000000036 0
-0.84 -0.040000000000000036 0
-0.76 -0.040000000000000036 0
-0.6799999999999999 -0.040000000000000036 0
-0.6 -0.040000000000000036 0
-0.52 -0.040000000000000036 0
-0.43999999999999995 -0.040000000000000036 0
-0.36 -0.040000000000000036 0
-0.28 -0.040000000000000036 0
-0.19999999999999996 -0.040000000000000036 0
-0.12 -0.040000000000000036 0
-0.040000000000000036 -0.040000000000000036 0
0.040000000000000036 -0.040000000000000036 0
0.1200000000000001 -0.040000000000000036 0
0.19999999999999996 -0.040000000000000036 0
0.28 -0.040000000000000036 0
0.3600000000000001 -0.040000000000000036 0
0.43999999999999995 -0.040000000000000036 0
0.52 -0.040000000000000036 0
0.6000000000000001 -0.040000000000000036 0
0.6799999999999999 -0.040000000000000036 0
0.76 -0.040000000000000036 0
0.8400000000000001 -0.040000000000000036 0
0.9199999999999999 -0.040000000000000036 0
1 -0.040000000000000036 0
-1 0.040000000000000036 0
-0.92 0.040000000000000036 0
-0.84 0.040000000000000036 0
-0.76 0.040000000000000036 0
-0.6799999999999999 0.040000000000000036 0
-0.6 0.040000000000000036 0
-0.52 0.040000000000000036 0
-0.43999999999999995 0.040000000000000036 0
-0.36 0.040000000000000036 0
-0.28 0.040000000000000036 0
-0.19999999999999996 0.040000000000000036 0
-0.12 0.040000000000000036 0
-0.040000000000000036 0.040000000000000036 0
0.040000000000000036 0.040000000000000036 0
0.1200000000000001 0.040000000000000036 0
0.19999999999999996 0.040000000000000036 0
0.28 0.040000000000000036 0
0.3600000000000001 0.040000000000000036 0
0.43999999999999995 0.040000000000000036 0
0.52 0.040000000000000036 0
0.6000000000000001 0.040000000000000036 0
0.6799999999999999 0.040000000000000036 0
0.76 0.040000000000000036 0
0.8400000000000001 0.040000000000000036 0
0.9199999999999999 0.040000000000000036 0
1 0.040000000000000036 0
-1 0.1200000000000001 0
-0.92 0.1200000000000001 0
-0.84 0.1200000000000001 0
-0.76 0.1200000000000001 0
-0.6799999999999999 0.1200000000000001 0
-0.6 0.1200000000000001 0
-0.52 0.1200000000000001 0
-0.43999999999999995 0.1200000000000001 0
-0.36 0.1200000000000001 0
-0.28 0.1200000000000001 0
-0.19999999999999996 0.1200000000000001 0
-0.12 0.1200000000000001 0
-0.040000000000000036 0.1200000000000001 0
0.040000000000000036 0.1200000000000001 0
0.1200000000000001 0.1200000000000001 0
0.19999999999999996 0.1200000000000001 0
0.28 0.1200000000000001 0
[...]
POINT_DATA 676
SCALARS phi1 double 1
LOOKUP_TABLE default
1.2401434992741867
1.2001434992741868
1.1609157175503755
1.1256909506947848
1.095187166513904
1.0698082739058334
1.0487479207218748
1.0283968105745953
1.012719112093773
1.0031948963187562
1
1
1
1
1
1
1.0031948963187562
1.012719112093773
1.0283968105745953
1.0487479207218748
1.0698082739058334
1.095187166513904
1.1256909506947848
1.1609157175503755
1.2001434992741866
1.2401434992741867
1.171421795944093
1.1308614669714314
1.0908639688493993
1.0532991083991707
1.0206340308725323
0.9933522226258611
0.9714738546187495
0.950789145920377
0.9338094023943002
0.9234717104492156
0.92
0.92
0.92
0.92
0.92
0.92
0.9234717104492156
0.9338094023943002
0.950789145920377
0.9714738546187495
0.9933522226258612
1.0206340308725323
1.0532991083991707
1.0908639688493993
1.1308614669714314
1.171421795944093
1.104213710878127
1.0616021566351586
1.0215794346686764
0.9820885433772496
0.9469702847784996
0.9175006994406587
0.8941997885156239
0.8734942649074222
0.8551023330572779
0.8438009243891593
0.84
0.84
0.84
0.84
0.84
0.84
0.8438009243891593
0.855102333057278
0.8734942649074222
0.8941997885156239
0.9175006994406587
0.9469702847784996
0.9820885433772496
1.0215794346686764
1.0616021566351586
1.104213710878127
1.038819914407499
0.9934072851810478
0.9522974023659214
0.9122974023659215
0.8744207314169951
0.8424170159442754
0.8170197316913973
0.7962201988042968
0.776659513557904
0.764198926981712
0.76
0.76
0.76
0.76
0.76
0.76
0.764198926981712
0.776659513557904
0.7962201988042968
0.8170197316913973
0.8424170159442755
0.8744207314169951
0.9122974023659214
0.9522974023659214
0.9934072851810478
1.038819914407499
0.9756053043357048
0.9271013588217522
0.8831920228411911
0.8430153700631662
0.8032873152304798
0.768326313509317
0.7403918808654254
0.7189461327011714
0.6985699678629191
0.6846897107449476
0.6799999999999999
0.6799999999999999
0.6799999999999999
0.6799999999999999
0.6799999999999999
0.6799999999999999
0.6846897107449476
0.6985699678629191
0.7189461327011712
0.7403918808654254
0.768326313509317
0.8032873152304798
0.8430153700631662
0.8831920228411912
0.9271013588217522
0.9756053043357048
0.9150216418895908
0.863119820654988
0.8157738929928284
0.773733337760411
0.733733337760411
0.6955459864805325
0.6645592769120013
0.6416720665980459
0.6209669878504009
0.6053098380168622
0.6
0.6
0.6
0.6
0.6
0.6
0.6053098380168622
0.6209669878504009
0.6416720665980459
0.6645592769120013
0.6955459864805325
0.733733337760411
0.7737333377604112
0.8157738929928285
0.863119820654988
0.9150216418895908
0.8574990466559905
0.8020191519445521
0.7508301670597916
0.705022807750367
0.6644513054576561
0.6245343181823851
0.5898287275202538
0.5643980004949205
0.5436924768867188
0.5261178575186363
0.52
0.52
0.52
0.52
0.52
0.52
0.5261178575186363
0.5436924768867188
0.5643980004949205
0.5898287275202538
0.6245343181823853
0.6644513054576561
0.705022807750367
0.7508301670597918
0.8020191519445521
0.8574990466559906
0.8009305041610667
0.744361961666143
0.6890608355184571
0.638839615808671
0.595169273154901
0.5551692731549009
0.5166786458588368
0.48745424021865524
0.46641841078359325
0.44721359549995787
0.43999999999999995
0.43999999999999995
0.43999999999999995
0.43999999999999995
0.43999999999999995
0.43999999999999995
0.44721359549995787
0.4664184107835933
0.48745424021865524
0.5166786458588368
0.5551692731549009
0.595169273154901
0.638839615808671
0.6890608355184572
0.744361961666143
0.8009305041610668
0.744885842809793
0.6877934191712192
0.6312248766762955
0.576172673774911
0.5273387617899011
0.4858872408521458
0.44588724085214587
0.4116679870787941
0.3891443446804679
0.3687817782917155
0.36
0.36
0.36
0.36
0.36
0.36
0.3687817782917155
0.3891443446804679
0.4116679870787941
0.44588724085214587
0.48588724085214585
0.5273387617899011
0.576172673774911
0.6312248766762955
0.6877934191712192
0.744885842809793
0.6929647217556104
0.631842570406578
0.5746563341813716
0.5180877916864478
0.46340593971642813
0.4167208713823222
0.3766052085493908
0.3378304705971116
0.31187027857734245
0.2911647549691408
0.28
0.28
0.28
0.28
0.28
0.28
0.2911647549691408
0.3118702785773425
0.3378304705971116
0.3766052085493908
0.4167208713823223
0.46340593971642813
0.5180877916864478
0.5746563341813716
0.6318425704065779
0.6929647217556104
0.646796175295746
0.5808357948313502
0.5188401957612065
0.46151924919152393
0.4049507066966001
0.3508777278825226
0.30732317624663563
0.2673231762466356
0.23461273486929607
0.21389068886601525
0.19999999999999996
0.19999999999999996
0.19999999999999996
0.19999999999999996
0.19999999999999996
0.19999999999999996
0.21389068886601525
0.23461273486929612
0.2673231762466356
0.30732317624663563
0.35087772788252264
0.4049507066966001
0.46151924919152393
0.5188401957612067
0.5808357948313501
0.646796175295746
0.606227740398644
0.5369457080958889
0.46919115029687214
0.40591287697862327
0.3483821642016763
0.29181362170675257
0.23892529142712665
0.1980411439438805
0.15906612034374354
0.13661662276288983
0.12
0.12
0.12
0.12
0.12
0.12
0.13661662276288983
0.1590661203437436
0.1980411439438805
0.23892529142712665
0.2918136217067526
0.34838216420167634
0.40591287697862327
0.4691911502968722
0.5369457080958888
0.606227740398644
0.5663435612695105
0.4969457080958889
0.42766367579313375
0.3584835428251036
0.2931473667911734
0.23524507921182877
0.17867653671690503
0.12875911164112544
0.08875911164112547
0.05934255665976442
0.040000000000000036
0.040000000000000036
0.040000000000000036
0.040000000000000036
0.040000000000000036
0.040000000000000036
0.05934255665976442
0.08875911164112553
0.12875911164112544
0.17867653671690503
0.23524507921182883
0.2931473667911734
0.3584835428251036
0.42766367579313386
0.4969457080958888
0.5663435612695105
0.5323850201783064
0.45875782052234987
0.38766437297045675
0.3183816434903787
0.24909961118762353
0.18084660244564882
0.12210799422198114
0.0655394517270573
0.01947707933837031
0.01793150944336111
0.038637033051562776
0.040000000000000036
0.040000000000000036
0.040000000000000036
0.040000000000000036
0.038637033051562776
0.01793150944336111
0.019477079338370364
0.0655394517270573
0.12210799422198114
0.1808466024456489
0.2490996111876235
0.3183816434903787
0.38766437297045686
0.45875782052234976
0.5323850201783064
0.5088443671979473
0.4312163241451331
0.35464411230048826
0.2799953116921107
0.20909961118762346
0.13981757888486843
0.07053554658211339
0.008970909232133431
0.047597633262790325
0.08980495296438482
0.11591109915468831
0.1200000000000001
0.1200000000000001
0.1200000000000001
0.1200000000000001
0.1159110991546883
0.08980495296438483
0.047597633262790234
0.008970909232133428
0.07053554658211339
0.13981757888486854
0.20909961118762346
0.2799953116921107
0.3546441123004883
0.43121632414513295
0.5088443671979473
0.4972035502165119
0.4174162173754925
0.33772951708168064
0.2582366257686662
0.179195655830567
0.10166617553890739
0.030535546582113444
0.03874648572064168
0.10416617575771404
0.1590869852671398
0.19318516525781362
0.19999999999999996
0.19999999999999996
0.19999999999999996
0.19999999999999996
0.19318516525781362
0.1590869852671398
0.10416617575771397
0.038746485720641696
0.030535546582113444
0.10166617553890749
0.179195655830567
0.2582366257686662
0.33772951708168075
0.4174162173754924
0.4972035502165119
0.49829725131363845
0.4187183765335459
0.3393376003732111
0.26033619649831646
0.18220829670289693
0.106886816621751
0.049494643626282656
0.07921267529791948
0.14802851802339678
0.21730326074756168
0.268369017569895
0.28
0.28
0.28
0.28
0.268369017569895
0.21730326074756168
0.1480285180233967
0.07921267529791948
0.049494643626282656
0.10688681662175109
0.18220829670289693
0.26033619649831646
0.3393376003732112
0.41871837653354577
0.49829725131363845
0.5120438760355907
0.43498719425485644
0.35921969231359385
0.28576863985754974
0.21699917904497898
0.15910239434513782
0.12782214231703615
0.14199798676980438
0.19180291037113706
0.2573105503261519
0.326592582628907
0.3600000000000001
0.3600000000000001
0.3600000000000001
0.3600000000000001
0.326592582628907
0.2573105503261519
0.19180291037113698
0.14199798676980438
0.12782214231703615
0.1591023943451379
0.21699917904497898
0.28576863985754974
0.35921969231359396
0.4349871942548563
0.5120438760355907
0.5374734517205246
0.4646532465016639
0.3946233237717924
0.3291694029597189
0.2716199993097318
0.22804024251254337
0.20743018195368892
0.2164537099832234
0.25194669425428523
0.30479840046467294
0.3675962365231506
0.435874614931662
0.43999999999999995
0.43999999999999995
0.4358746149316619
0.3675962365231506
0.30479840046467294
0.2519466942542852
0.2164537099832234
0.20743018195368892
0.2280402425125434
0.2716199993097318
0.3291694029597189
0.3946233237717925
0.4646532465016638
0.5374734517205246
0.5730327142696122
0.5053626616632455
0.4418329412611975
0.3845013344107946
0.3365504484380352
0.30247501140425387
0.28725608906368616
0.2938383720420553
0.32088302707448735
0.3638555279841809
0.4178705223209792
0.47920841145055965
0.52
0.52
0.47920841145055953
0.4178705223209792
0.3638555279841809
0.3208830270744873
0.2938383720420553
0.28725608906368616
0.30247501140425387
0.3365504484380352
0.3845013344107946
0.4418329412611976
0.5053626616632454
0.5730327142696122
0.6169726670947612
0.5546892825016397
0.49749887266439585
0.4473589794365434
0.40688448565000185
0.3791832180395481
0.36715778763766993
0.37233018841231397
0.3940237269293692
0.4297436742564933
0.4763449944563624
0.5309703211327285
0.5914003805409274
0.5914003805409274
0.5309703211327285
0.4763449944563624
0.4297436742564933
0.3940237269293692
0.37233018841231397
0.36715778763766993
0.3791832180395481
0.40688448565000185
0.4473589794365434
0.4974988726643959
0.5546892825016396
0.6169726670947612
0.6676406610302033
0.6105480983845644
0.5591009824898974
0.5149940162772083
0.4802538547284033
0.45702154562082875
0.4470946447250427
0.4513519131697273
0.46940758164108715
0.49976835222160154
0.540364075473616
0.5890825597848035
0.6440832170013262
0.6440832170013262
0.5890825597848034
0.540364075473616
0.49976835222160154
0.46940758164108715
0.4513519131697273
0.4470946447250427
0.45702154562082875
0.4802538547284033
0.5149940162772083
0.5591009824898975
0.6105480983845643
0.6676406610302033
0.7236247871512353
0.6713104801504529
0.6248861407808566
0.585753887840408
0.5554570598167912
0.5354974075385194
0.527050663276915
0.5306668727561548
0.5461064530116431
0.5724134748598417
0.6081793439284827
0.651848941520534
0.7019486952346313
0.7019486952346313
0.6518489415205339
0.6081793439284827
0.5724134748598417
0.546106453011643
0.5306668727561548
0.527050663276915
0.5354974075385195
0.5554570598167912
0.585753887840408
0.6248861407808566
0.6713104801504528
0.7236247871512353
0.7837867139078684
0.7357625575405803
0.6936652429369778
0.6586322171280246
0.6318396359988334
0.614366546777491
0.6070182715367471
0.6101607248583122
0.6236353408361186
0.6467966964355513
0.6786537369676112
0.7180500141913964
0.763819842018015
0.763819842018015
0.7180500141913962
0.6786537369676112
0.6467966964355513
0.6236353408361186
0.6101607248583122
0.6070182715367471
0.6143665467774911
0.6318396359988334
0.6586322171280246
0.6936652429369778
0.7357625575405802
0.7837867139078684
0.8472369168168479
0.8030163892458729
0.764630792982888
0.7329973927360186
0.7090205257522253
0.6934947974701201
0.6869934223107844
0.6897716219724066
0.7017191878939933
0.7223813029410204
0.7510390635772065
0.7868192951364933
0.8288000551274409
0.8288000551274409
0.7868192951364933
0.7510390635772065
0.7223813029410204
0.7017191878939933
0.6897716219724066
0.6869934223107844
0.6934947974701201
0.7090205257522253
0.7329973927360186
0.764630792982888
0.8030163892458729
0.8472369168168479
0.9132903008004313
0.8724242670377201
0.8372269882752611
0.8084392111201837
0.7867648227118355
0.7728025714481978
0.7669737561462633
0.7694632355072389
0.7801913861210142
0.7988263435550873
0.8248323801462641
0.8575391440149611
0.8962133181882944
0.8962133181882944
0.857539144014961
0.8248323801462641
0.7988263435550873
0.7801913861210141
0.7694632355072389
0.7669737561462633
0.7728025714481978
0.7867648227118355
0.8084392111201837
0.8372269882752611
0.8724242670377201
0.9132903008004313

SCALARS phi2 double 1
LOOKUP_TABLE default
1.3292402587815135
1.3015009004014195
1.2781742924679194
1.259505637187078
1.2457043703408077
1.2369334284699194
1.2333001397253267
1.2348498543655706
1.2415631643242449
1.253357099627633
1.2700901335602737
1.2915703138224084
1.3175654836582034
1.3175654836582034
1.2915703138224084
1.2700901335602737
1.253357099627633
1.2415631643242449
1.2348498543655706
1.2333001397253267
1.2369334284699194
1.2457043703408077
1.259505637187078
1.2781742924679194
1.3015009004014195
1.3292402587815135
1.2553758185835704
1.2259663021733225
1.2011737185955622
1.1812888006007896
1.1665625395172832
1.1571918971307973
1.153307424308599
1.1549644770058929
1.1621393510787148
1.1747309477092265
1.1925677036067923
1.2154187162727663
1.243007475458736
1.243007475458736
1.215418716272766
1.1925677036067923
1.1747309477092265
1.1621393510787148
1.1549644770058929
1.153307424308599
1.1571918971307973
1.1665625395172832
1.1812888006007896
1.2011737185955622
1.2259663021733225
1.2553758185835704
1.182310122684904
1.1510352533190953
1.1245919626973664
1.1033276987113465
1.0875462927727888
1.0774886853716827
1.073315794761336
1.0750961461489474
1.0828003747895916
1.0963035983816896
1.1153952250233108
1.1397944710275458
1.1691690914342219
1.1691690914342219
1.1397944710275456
1.1153952250233108
1.0963035983816896
1.0828003747895916
1.0750961461489474
1.073315794761336
1.0774886853716827
1.0875462927727888
1.1033276987113465
1.1245919626973664
1.1510352533190953
1.182310122684904
1.1102008856607966
1.076833754440386
1.0485207975440156
1.0256806476981515
1.008685143760262
0.9978329757142832
0.9933255134159105
0.9952489657282458
1.0035663565321946
1.0181209948446523
1.038650705638631
1.0648099438415226
1.0961957602015926
1.0961957602015926
1.0648099438415226
1.038650705638631
1.0181209948446523
1.0035663565321946
0.9952489657282458
0.9933255134159105
0.9978329757142832
1.008685143760262
1.0256806476981515
1.0485207975440156
1.076833754440386
1.1102008856607966
1.039247221233158
1.0035236494577502
0.9730799778030388
0.9484247842508774
0.9300185479663748
0.918237130452502
0.9133369344999719
0.9154284702269024
0.9244642839407738
0.9402441919322281
0.9624365270720192
0.9906104162699938
1.0242723880895996
1.0242723880895996
0.9906104162699938
0.9624365270720192
0.9402441919322281
0.9244642839407738
0.9154284702269024
0.9133369344999719
0.918237130452502
0.9300185479663748
0.9484247842508774
0.9730799778030388
1.0035236494577502
1.039247221233158
0.9697028241475141
0.9313154649955221
0.8984283073901814
0.8716641278039078
0.8516004226632982
0.838718193471722
0.833350548233233
0.835642306504877
0.8455311896086103
0.8627560030397428
0.8868894231871713
0.9173863837780863
0.9536365687837245
0.9536365687837245
0.9173863837780863
0.8868894231871713
0.8627560030397428
0.8455311896086103
0.835642306504877
0.833350548233233
0.838718193471722
0.8516004226632982
0.8716641278039078
0.8984283073901814
0.931315464995522
0.9697028241475141
0.9018937562032949
0.8604866504825334
0.8247800942304623
0.7955420366133842
0.7735063414084801
0.759300328183317
0.7533670530089923
0.7559013459040901
0.7668192570089615
0.7857714051172494
0.8121955609827582
0.8453913634880938
0.8845967926916868
0.8845967926916868
0.8453913634880937
0.8121955609827582
0.7857714051172494
0.7668192570089614
0.7559013459040901
0.7533670530089923
0.759300328183317
0.7735063414084801
0.7955420366133842
0.8247800942304623
0.8604866504825333
0.9018937562032949
0.8362422662107628
0.7914076421020163
0.7524300526677772
0.7202610029272687
0.6958454142393666
0.6800189473081737
0.6733874790031944
0.6762215798526682
0.688404353006719
0.7094543547112528
0.7386138433572181
0.7749679591951413
0.8175575000935671
0.8175575000935671
0.7749679591951412
0.7386138433572181
0.7094543547112528
0.688404353006719
0.6762215798526682
0.6733874790031944
0.6800189473081737
0.6958454142393666
0.7202610029272687
0.7524300526677773
0.7914076421020162
0.8362422662107628
0.7732980719723386
0.7245790752542453
0.6817915843397145
0.646115076945755
0.618780753447277
0.6009280730810808
0.5934134117098312
0.5966275264997941
0.6104009613011954
0.6340459460777147
0.6665127079941876
0.7065862425054044
0.7530531497033041
0.7530531497033041
0.7065862425054042
0.6665127079941876
0.6340459460777147
0.6104009613011954
0.5966275264997941
0.5934134117098312
0.6009280730810808
0.618780753447277
0.646115076945755
0.6817915843397145
0.7245790752542451
0.7732980719723386
0.7137777584339261
0.6606842033945727
0.6134562289155453
0.5735446564788507
0.54256649468577
0.5221142876188742
0.513447424295736
0.5171587625633799
0.5329897877785721
0.5599134237151384
0.5964293505827569
0.6409000689785654
0.6917931964083565
0.6917931964083565
0.6409000689785654
0.5964293505827569
0.5599134237151384
0.5329897877785721
0.5171587625633799
0.513447424295736
0.5221142876188744
0.54256649468577
0.5735446564788507
0.6134562289155454
0.6606842033945726
0.7137777584339261
0.6586102555789607
0.6006599678136916
0.5482858060483654
0.5032318087067497
0.467618628237186
0.44372526371008947
0.43349398823368857
0.4378835073565916
0.4564722271892027
0.48763902876536863
0.5291660897633114
0.578827848963363
0.6347177379872998
0.6347177379872998
0.5788278489633629
0.5291660897633114
0.48763902876536863
0.4564722271892027
0.4378835073565916
0.43349398823368857
0.44372526371008947
0.467618628237186
0.5032318087067497
0.5482858060483654
0.6006599678136915
0.6586102555789607
0.6089796787025064
0.5457849184914959
0.48755113109593917
0.43626945069886636
0.3946592983742451
0.36603400111657985
0.3535616186092224
0.3589300019972336
0.38138651590465944
0.4181872818415882
0.4659458454307934
0.5216612493317648
0.5830569330987657
0.5830569330987657
0.5216612493317647
0.4659458454307934
0.4181872818415882
0.3813865159046594
0.3589300019972336
0.3535616186092224
0.36603400111657985
0.3946592983742451
0.43626945069886636
0.4875511310959393
0.5457849184914958
0.6089796787025064
0.5663435612695105
0.49776496217752486
0.43312225266286375
0.37445936219023085
0.32503037106103694
0.28960260753701145
0.2736687751140001
0.28057000312321
0.3087789740780919
0.3532270983558309
0.40864937439453003
0.4711891757810249
0.5383717744768596
0.5383717744768596
0.47118917578102487
0.40864937439453003
0.3532270983558309
0.30877897407809185
0.28057000312321
0.2736687751140001
0.2896026075370115
0.32503037106103694
0.37445936219023085
0.4331222526628638
0.49776496217752475
0.5663435612695105
0.5323850201783064
0.45875782052234987
0.38766437297045675
0.3207936942191014
0.261406814048332
0.21577407307426932
0.1938643308894677
0.20349031173837717
0.24090088242167734
0.29573326382350645
0.360115386385898
0.42977670910837584
0.5025265643447979
0.5025265643447979
0.4297767091083757
0.360115386385898
0.29573326382350645
0.2409008824216773
0.20349031173837717
0.1938643308894677
0.21577407307426938
0.261406814048332
0.3207936942191014
0.38766437297045686
0.45875782052234976
0.5323850201783064
0.5088443671979473
0.4312163241451331
0.35464411230048826
0.2799953116921107
0.20933777191353475
0.14848309981234903
0.11433354324101437
0.12998879678728395
0.18309018398146498
0.25089229492060444
0.3243021304750996
0.4002459244150393
0.4775162072548012
0.4775162072548012
0.4002459244150392
0.3243021304750996
0.25089229492060444
0.1830901839814649
0.12998879678728395
0.11433354324101437
0.1484830998123491
0.20933777191353475
0.2799953116921107
0.3546441123004883
0.43121632414513295
0.5088443671979473
0.4972035502165119
0.4174162173754925
0.33772951708168064
0.2582366257686662
0.179195655830567
0.10166617553890739
0.03689091255131577
0.07201296833924933
0.14768478523257098
0.22635309578035706
0.3057133496422955
0.38533826740887456
0.4650919355459028
0.4650919355459028
0.38533826740887445
0.3057133496422955
0.22635309578035706
0.14768478523257086
0.07201296833924933