# vtk DataFile Version 4.1
Header:
ASCII

DATASET UNSTRUCTURED_GRID
POINTS 8 double
-0.23809523809523814 -0.04761904761904767 0.0
-0.1428571428571429 -0.04761904761904767 0.0
-0.1428571428571429 0.04761904761904745 0.0
-0.23809523809523814 0.04761904761904745 0.0
0.1428571428571428 -0.04761904761904767 0.0
0.23809523809523814 -0.04761904761904767 0.0
0.23809523809523814 0.04761904761904745 0.0
0.1428571428571428 0.04761904761904745 0.0


POINT_DATA 8
SCALARS Tip_nodes_new double 1
LOOKUP_TABLE default
0
0
0
0
0
0
0
0

