# vtk DataFile Version 4.1
Header:
ASCII

DATASET UNSTRUCTURED_GRID
POINTS 2 double
-0.5714285714285714 0.47619047619047605 0.0
0.5714285714285714 0.47619047619047605 0.0


POINT_DATA 2
SCALARS tip_element_centroids double 1
LOOKUP_TABLE default
0
0

