# vtk DataFile Version 4.1
Header:
ASCII

DATASET UNSTRUCTURED_GRID
POINTS 8 double
-0.6190476190476191 0.23809523809523814 0.0
-0.5238095238095238 0.23809523809523814 0.0
-0.5238095238095238 0.33333333333333326 0.0
-0.6190476190476191 0.33333333333333326 0.0
0.5238095238095237 0.23809523809523814 0.0
0.6190476190476191 0.23809523809523814 0.0
0.6190476190476191 0.33333333333333326 0.0
0.5238095238095237 0.33333333333333326 0.0


POINT_DATA 8
SCALARS Tip_nodes_new double 1
LOOKUP_TABLE default
0
0
0
0
0
0
0
0

