# vtk DataFile Version 4.1
Header:
ASCII

DATASET UNSTRUCTURED_GRID
POINTS 4 double
-0.380952380952381 -1.1102230246251565E-16 0.0
0.3809523809523808 -1.1102230246251565E-16 0.0
-0.380952380952381 0.09523809523809512 0.0
0.3809523809523808 0.09523809523809512 0.0


POINT_DATA 4
SCALARS tip_element_centroids double 1
LOOKUP_TABLE default
0
0
0
0

