# vtk DataFile Version 4.1
Header:
ASCII

DATASET UNSTRUCTURED_GRID
POINTS 8 double
-0.6190476190476191 0.4285714285714284 0
-0.5238095238095238 0.4285714285714284 0
-0.5238095238095238 0.5238095238095237 0
-0.6190476190476191 0.5238095238095237 0
0.5238095238095237 0.4285714285714284 0
0.6190476190476191 0.4285714285714284 0
0.6190476190476191 0.5238095238095237 0
0.5238095238095237 0.5238095238095237 0

CELLS 2 10
4 0 1 2 3
4 4 5 6 7

CELL_TYPES 2
9
9


POINT_DATA 8
SCALARS is_in_tip_element double 1
LOOKUP_TABLE default
1
1
1
1
1
1
1
1

