# vtk DataFile Version 4.1
Header:
ASCII

DATASET UNSTRUCTURED_GRID
POINTS 2 double
-0.19047619047619052 -1.1102230246251565E-16 0.0
0.19047619047619047 -1.1102230246251565E-16 0.0


POINT_DATA 2
SCALARS tip_element_centroids double 1
LOOKUP_TABLE default
0
0

