# vtk DataFile Version 4.1
Header:
ASCII

DATASET UNSTRUCTURED_GRID
POINTS 8 double
-0.23809523809523814 -0.04761904761904767 0
-0.1428571428571429 -0.04761904761904767 0
-0.1428571428571429 0.04761904761904745 0
-0.23809523809523814 0.04761904761904745 0
0.1428571428571428 -0.04761904761904767 0
0.23809523809523814 -0.04761904761904767 0
0.23809523809523814 0.04761904761904745 0
0.1428571428571428 0.04761904761904745 0

CELLS 2 10
4 0 1 2 3
4 4 5 6 7

CELL_TYPES 2
9
9


POINT_DATA 8
SCALARS is_in_tip_element double 1
LOOKUP_TABLE default
1
1
1
1
1
1
1
1

