# vtk DataFile Version 4.1
Header:
ASCII

DATASET UNSTRUCTURED_GRID
POINTS 4 double
-0.47619047619047616 0.19047619047619047 0.0
0.47619047619047605 0.19047619047619047 0.0
-0.47619047619047616 0.2857142857142857 0.0
0.47619047619047605 0.2857142857142857 0.0


POINT_DATA 4
SCALARS tip_element_centroids double 1
LOOKUP_TABLE default
0
0
0
0

