# vtk DataFile Version 4.1
Header:
ASCII

DATASET UNSTRUCTURED_GRID
POINTS 16 double
-0.5238095238095238 0.1428571428571428 0
-0.4285714285714286 0.1428571428571428 0
-0.4285714285714286 0.23809523809523814 0
-0.5238095238095238 0.23809523809523814 0
0.4285714285714284 0.1428571428571428 0
0.5238095238095237 0.1428571428571428 0
0.5238095238095237 0.23809523809523814 0
0.4285714285714284 0.23809523809523814 0
-0.5238095238095238 0.23809523809523814 0
-0.4285714285714286 0.23809523809523814 0
-0.4285714285714286 0.33333333333333326 0
-0.5238095238095238 0.33333333333333326 0
0.4285714285714284 0.23809523809523814 0
0.5238095238095237 0.23809523809523814 0
0.5238095238095237 0.33333333333333326 0
0.4285714285714284 0.33333333333333326 0

CELLS 4 20
4 0 1 2 3
4 4 5 6 7
4 8 9 10 11
4 12 13 14 15

CELL_TYPES 4
9
9
9
9


POINT_DATA 16
SCALARS is_in_tip_element double 1
LOOKUP_TABLE default
1
1
1
1
1
1
1
1
1
1
1
1
1
1
1
1

