# vtk DataFile Version 4.1
Header:
ASCII

DATASET UNSTRUCTURED_GRID
POINTS 12 double
-0.5238095238095238 0.1428571428571428 0.0
-0.4285714285714286 0.1428571428571428 0.0
-0.4285714285714286 0.23809523809523814 0.0
-0.5238095238095238 0.23809523809523814 0.0
0.4285714285714284 0.1428571428571428 0.0
0.5238095238095237 0.1428571428571428 0.0
0.5238095238095237 0.23809523809523814 0.0
0.4285714285714284 0.23809523809523814 0.0
-0.4285714285714286 0.33333333333333326 0.0
-0.5238095238095238 0.33333333333333326 0.0
0.5238095238095237 0.33333333333333326 0.0
0.4285714285714284 0.33333333333333326 0.0


POINT_DATA 12
SCALARS Tip_nodes_new double 1
LOOKUP_TABLE default
0
0
0
0
0
0
0
0
0
0
0
0

