# vtk DataFile Version 4.1
Header:
ASCII

DATASET UNSTRUCTURED_GRID
POINTS 3312 double
-0.4464157449707762 -0.20937435149310102 -0.4054018956698661
-0.4116039362426941 -0.20937435149310096 -0.42160758267946413
-0.41160393624269415 -0.23749740597240526 -0.40540189566986606
-0.38333333333333386 -0.2533723023233393 -0.40540189566986606
-0.38333333333333386 -0.22524924784403505 -0.4216075826794642
-0.3333333333333339 -0.2728739368968374 -0.405401895669866
-0.3666666666666669 -0.21587489635093343 -0.4307819594509421
-0.316666666666667 -0.2158748963509335 -0.4420994027557774
-0.3166666666666669 -0.2634995854037358 -0.414576272441344
-0.28333333333333394 -0.2793744817546702 -0.40917437677147783
-0.2833333333333339 -0.23174979270186785 -0.43669750708591126
-0.23333333333333392 -0.2793744817546702 -0.40917437677147783
-0.26666666666666694 -0.21587489635093346 -0.4458718838573892
-0.21666666666666698 -0.2158748963509335 -0.4458718838573892
-0.21666666666666692 -0.26349958540373575 -0.4183487535429558
-0.18333333333333393 -0.27287393689683775 -0.40917437677147783
-0.18333333333333396 -0.2252492478440354 -0.43669750708591126
-0.13333333333333394 -0.2533723023233396 -0.40917437677147783
-0.16666666666666696 -0.20937435149310096 -0.44209940275577736
-0.11666666666666695 -0.20937435149310096 -0.43078195945094205
-0.11666666666666697 -0.23749740597240523 -0.41457627244134404
-0.08839606375730645 -0.23749740597240576 -0.40540189566986606
-0.08839606375730644 -0.20937435149310152 -0.4216075826794641
-0.05358425502922448 -0.20937435149310155 -0.40540189566986606
-0.5202528165821306 -0.10984444544100229 -0.4034647485855384
-0.5050632041455327 -0.10984444544100228 -0.4138589943421536
-0.5050632041455327 -0.13937778176401033 -0.4034647485855384
-0.49493726957602746 -0.1560444484306769 -0.4034647485855384
-0.49493726957602746 -0.12651111210766885 -0.41385899434215356
-0.4797490783041095 -0.17651111210766884 -0.4034647485855384
-0.4782706029093605 -0.11666666666666599 -0.42486452724110557
-0.4282706029093604 -0.11666666666666597 -0.4474868801813454
-0.46308241163744246 -0.16666666666666594 -0.41447028148449033
-0.41160393624269354 -0.13333333333333297 -0.4494240272656732
-0.4116039362426935 -0.183333333333333 -0.43261311557841614
-0.44641574497077546 -0.18333333333333296 -0.41640742856881796
-0.31666666666666593 -0.18333333333333296 -0.4566448567067543
-0.31666666666666593 -0.13333333333333297 -0.4727580882452516
-0.36666666666666586 -0.18333333333333293 -0.445327413401919
-0.3333333333333329 -0.11666666666666599 -0.4745892443727256
-0.3833333333333329 -0.11666666666666597 -0.46396948121665005
-0.38333333333333286 -0.16666666666666596 -0.447158569529393
-0.21666666666666595 -0.183333333333333 -0.46041733780836586
-0.21666666666666595 -0.13333333333333297 -0.4765305693468633
-0.266666666666666 -0.183333333333333 -0.4604173378083659
-0.23333333333333295 -0.11666666666666596 -0.48190164652636236
-0.2833333333333329 -0.11666666666666597 -0.4819016465263624
-0.28333333333333294 -0.16666666666666596 -0.46578841498786505
-0.11666666666666596 -0.18333333333333296 -0.44178749234989345
-0.11666666666666597 -0.13333333333333297 -0.4585984040371506
-0.16666666666666596 -0.18333333333333296 -0.45310493565472887
-0.13333333333333297 -0.11666666666666597 -0.4677419623182616
-0.18333333333333296 -0.11666666666666597 -0.47836172547433714
-0.18333333333333293 -0.16666666666666594 -0.46224849393583983
-0.0050627304239724705 -0.15604444843067694 -0.4034647485855384
-0.005062730423972471 -0.12651111210766888 -0.41385899434215356
-0.020250921695890493 -0.17651111210766884 -0.40346474858553844
-0.021729397090639466 -0.11666666666666599 -0.42486452724110557
-0.07172939709063944 -0.11666666666666597 -0.4474868801813454
-0.036917588362557485 -0.16666666666666596 -0.4144702814844903
-0.08839606375730645 -0.133333333333333 -0.4494240272656732
-0.08839606375730644 -0.18333333333333296 -0.43261311557841603
-0.05358425502922448 -0.18333333333333296 -0.416407428568818
0.005249785598670946 -0.13937778176401092 -0.4034647485855384
0.005249785598670947 -0.10984444544100286 -0.41385899434215356
0.02099914239468441 -0.10984444544100286 -0.4034647485855384
-0.536609521977653 -0.016666666666666004 -0.405401895669866
-0.5129497836035627 -0.016666666666666004 -0.4216075826794641
-0.5281393960401606 -0.06666666666666599 -0.40540189566986606
-0.5050632041455325 -0.033333333333333 -0.4250723312650026
-0.5050632041455324 -0.08333333333333298 -0.4192608900120197
-0.5202528165821303 -0.08333333333333298 -0.4088666442554045
-0.41666666666666596 -0.083333333333333 -0.4602836786201817
-0.41666666666666596 -0.03333333333333299 -0.4656574752398351
-0.466666666666666 -0.083333333333333 -0.4376613256799418
-0.43333333333333296 -0.016666666666666004 -0.4600538380107493
-0.48333333333333295 -0.016666666666666004 -0.43786912970383884
-0.48333333333333306 -0.066666666666666 -0.432057688450856
-0.316666666666666 -0.08333333333333298 -0.48543579597062597
-0.3166666666666659 -0.03333333333333299 -0.4905447759209951
-0.36666666666666603 -0.083333333333333 -0.47481603281455054
-0.3333333333333329 -0.016666666666666004 -0.4887961204088543
-0.38333333333333297 -0.016666666666666004 -0.4784411739220631
-0.38333333333333297 -0.066666666666666 -0.4730673773024098
-0.21666666666666595 -0.08333333333333298 -0.488975717022651
-0.21666666666666592 -0.03333333333333299 -0.49408469697302004
-0.266666666666666 -0.08333333333333298 -0.488975717022651
-0.23333333333333295 -0.016666666666666004 -0.49578769028980985
-0.28333333333333294 -0.016666666666666007 -0.49578769028980985
-0.283333333333333 -0.066666666666666 -0.4906787103394408
-0.11666666666666597 -0.08333333333333298 -0.47136438398561975
-0.11666666666666597 -0.033333333333333 -0.4767381806052731
-0.16666666666666602 -0.083333333333333 -0.48198414714169535
-0.13333333333333297 -0.016666666666666004 -0.48198109497408803
-0.183333333333333 -0.016666666666666004 -0.4923360414608794
-0.183333333333333 -0.066666666666666 -0.48722706151051026
-0.016666666666666004 -0.08333333333333298 -0.43026642291097106
-0.016666666666666007 -0.03333333333333299 -0.4360778641639539
-0.066666666666666 -0.083333333333333 -0.452888775851211
-0.033333333333333 -0.016666666666666004 -0.44540991401725183
-0.08333333333333298 -0.016666666666666 -0.46759462232416227
-0.083333333333333 -0.066666666666666 -0.462220825704509
0.03924422025741487 -0.016666666666666004 -0.40540189566986606
0.013748394263357056 -0.016666666666666004 -0.42160758267946413
0.029497751059370515 -0.06666666666666599 -0.40540189566986606
0.005249785598670948 -0.033333333333333 -0.42507233126500266
0.005249785598670945 -0.08333333333333298 -0.41926089001201966
0.02099914239468441 -0.08333333333333298 -0.4088666442554045
-0.5281393960401605 0.08333333333333406 -0.40346474858553844
-0.5129497836035626 0.08333333333333408 -0.4138589943421536
-0.5366095219776529 0.03333333333333402 -0.4034647485855384
-0.5078865794580298 0.06666666666666707 -0.41926089001201977
-0.5078865794580297 0.016666666666667013 -0.4250723312650026
-0.5315463178321201 0.01666666666666701 -0.40886664425540453
-0.4166666666666659 0.016666666666667006 -0.46759462232416266
-0.41666666666666585 0.06666666666666705 -0.4622208257045093
-0.466666666666666 0.016666666666667013 -0.44540991401725216
-0.43333333333333296 0.08333333333333406 -0.4528887758512113
-0.483333333333333 0.08333333333333406 -0.4302664229109714
-0.48333333333333295 0.03333333333333402 -0.4360778641639542
-0.31666666666666593 0.01666666666666701 -0.4923360414608795
-0.31666666666666593 0.06666666666666707 -0.4872270615105104
-0.366666666666666 0.01666666666666701 -0.4819810949740882
-0.3333333333333329 0.08333333333333406 -0.4819841471416954
-0.3833333333333329 0.08333333333333408 -0.4713643839856199
-0.38333333333333297 0.03333333333333402 -0.47673818060527323
-0.21666666666666598 0.016666666666667013 -0.49578769028980973
-0.21666666666666598 0.06666666666666705 -0.49067871033944066
-0.26666666666666594 0.01666666666666701 -0.4957876902898099
-0.23333333333333295 0.08333333333333406 -0.4889757170226509
-0.2833333333333329 0.08333333333333406 -0.4889757170226509
-0.28333333333333305 0.03333333333333402 -0.49408469697302004
-0.11666666666666596 0.01666666666666701 -0.47844117392206265
-0.11666666666666596 0.06666666666666707 -0.47306737730240933
-0.166666666666666 0.016666666666667013 -0.48879612040885406
-0.13333333333333297 0.08333333333333408 -0.4748160328145501
-0.183333333333333 0.08333333333333408 -0.4854357959706257
-0.18333333333333296 0.03333333333333402 -0.4905447759209948
-0.016666666666666004 0.01666666666666701 -0.43786912970383823
-0.016666666666666004 0.06666666666666705 -0.43205768845085535
-0.066666666666666 0.01666666666666701 -0.46005383801074873
-0.03333333333333299 0.08333333333333406 -0.43766132567994115
-0.08333333333333298 0.08333333333333406 -0.46028367862018105
-0.083333333333333 0.03333333333333402 -0.4656574752398345
0.029497751059370317 0.08333333333333406 -0.4034647485855384
0.013748394263356856 0.08333333333333406 -0.41385899434215356
0.03924422025741467 0.03333333333333402 -0.4034647485855384
0.0084986086646856 0.06666666666666705 -0.4192608900120197
0.0084986086646856 0.016666666666667013 -0.4250723312650026
0.03399443465874341 0.01666666666666701 -0.40886664425540453
-0.5050632041455324 0.1393777817640111 -0.4034647485855384
-0.5050632041455324 0.10984444544100297 -0.41385899434215356
-0.5202528165821304 0.109844445441003 -0.40346474858553844
-0.4949372695760275 0.1560444484306771 -0.4034647485855384
-0.49493726957602746 0.12651111210766902 -0.4138589943421535
-0.47974907830410946 0.17651111210766907 -0.4034647485855384
-0.4782706029093605 0.11666666666666611 -0.42486452724110557
-0.4282706029093604 0.11666666666666611 -0.4474868801813455
-0.4630824116374424 0.16666666666666616 -0.4144702814844903
-0.4116039362426935 0.13333333333333314 -0.44942402726567315
-0.4116039362426934 0.18333333333333318 -0.43261311557841603
[...]
POINT_DATA 3312
SCALARS element_ids double 1
LOOKUP_TABLE default
2145
2145
2145
2146
2146
2146
2146
2146
2146
2147
2147
2147
2147
2147
2147
2148
2148
2148
2148
2148
2148
2149
2149
2149
2164
2164
2164
2165
2165
2165
2165
2165
2165
2165
2165
2165
2166
2166
2166
2166
2166
2166
2167
2167
2167
2167
2167
2167
2168
2168
2168
2168
2168
2168
2169
2169
2169
2169
2169
2169
2169
2169
2169
2170
2170
2170
2184
2184
2184
2184
2184
2184
2185
2185
2185
2185
2185
2185
2186
2186
2186
2186
2186
2186
2187
2187
2187
2187
2187
2187
2188
2188
2188
2188
2188
2188
2189
2189
2189
2189
2189
2189
2190
2190
2190
2190
2190
2190
2204
2204
2204
2204
2204
2204
2205
2205
2205
2205
2205
2205
2206
2206
2206
2206
2206
2206
2207
2207
2207
2207
2207
2207
2208
2208
2208
2208
2208
2208
2209
2209
2209
2209
2209
2209
2210
2210
2210
2210
2210
2210
2224
2224
2224
2225
2225
2225
2225
2225
2225
2225
2225
2225
2226
2226
2226
2226
2226
2226
2227
2227
2227
2227
2227
2227
2228
2228
2228
2228
2228
2228
2229
2229
2229
2229
2229
2229
2229
2229
2229
2230
2230
2230
2245
2245
2245
2246
2246
2246
2246
2246
2246
2247
2247
2247
2247
2247
2247
2248
2248
2248
2248
2248
2248
2249
2249
2249
2524
2524
2524
2525
2525
2525
2525
2525
2525
2526
2526
2526
2526
2526
2526
2527
2527
2527
2527
2527
2527
2528
2528
2528
2528
2528
2528
2529
2529
2529
2529
2529
2529
2530
2530
2530
2544
2544
2544
2544
2544
2544
2545
2545
2545
2545
2545
2545
2545
2545
2545
2546
2546
2546
2546
2546
2546
2547
2547
2547
2547
2547
2547
2548
2548
2548
2548
2548
2548
2549
2549
2549
2549
2549
2549
2549
2549
2549
2550
2550
2550
2550
2550
2550
2550
2550
2550
2551
2551
2551
2551
2551
2551
2552
2552
2552
2552
2552
2552
2553
2553
2553
2553
2553
2553
2554
2554
2554
2563
2563
2563
2564
2564
2564
2564
2564
2564
2564
2564
2564
2564
2564
2564
2565
2565
2565
2569
2569
2569
2570
2570
2570
2570
2570
2570
2570
2570
2570
2571
2571
2571
2571
2571
2571
2572
2572
2572
2572
2572
2572
2573
2573
2573
2573
2573
2573
2574
2574
2574
2574
2574
2574
2583
2583
2583
2583
2583
2583
2584
2584
2584
2584
2584
2584
2590
2590
2590
2590
2590
2590
2591
2591
2591
2591
2591
2591
2592
2592
2592
2592
2592
2592
2593
2593
2593
2593
2593
2593
2594
2594
2594
2594
2594
2594
2594
2594
2594
2595
2595
2595
2603
2603
2603
2603
2603
2603
2604
2604
2604
2604
2604
2604
2610
2610
2610
2610
2610
2610
2611
2611
2611
2611
2611
2611
2612
2612
2612
2612
2612
2612
2613
2613
2613
2613
2613
2613
2614
2614
2614
2614
2614
2614
2614
2614
2614
2615
2615
2615
2623
2623
2623
2624
2624
2624
2624
2624
2624
2624
2624
2624
2624
2624
2624
2625
2625
2625
2629
2629
2629
2630
2630
2630
2630
2630
2630
2630
2630
2630
2631
2631
2631
2631
2631
2631
2632
2632
2632
2632
2632
2632
2633
2633
2633
2633
2633
2633
2634
2634
2634
2634
2634
2634
2644
2644
2644
2644
2644
2644
2645
2645
2645
2645
2645
2645
2645
2645
2645
2646
2646
2646
2646
2646
2646
2647
2647
2647
2647
2647
2647
2648
2648
2648
2648
2648
2648
2649
2649
2649
2649
2649
2649
2649
2649
2649
2650
2650
2650
2650
2650
2650
2650
2650
2650
2651
2651
2651
2651
2651
2651
2652
2652
2652
2652
2652
2652
2653
2653
2653
2653
2653
2653
2654
2654
2654
2664
2664
2664
2665
2665
2665
2665
2665
2665
2666
2666
2666
2666
2666
2666
2667
2667
2667
2667
2667
2667
2668
2668
2668
2668
2668
2668
2669
2669
2669
2669
2669
2669
2670
2670
2670
2905
2905
2905
2906
2906
2906
2906
2906
2906
2907
2907
2907
2907
2907
2907
2908
2908
2908
2908
2908
2908
2909
2909
2909
2924
2924
2924
2924
2924
2924
2925
2925
2925
2925
2925
2925
2925
2925
2925
2926
2926
2926
2926
2926
2926
2927
2927
2927
2927
2927
2927
2928
2928
2928
2928
2928
2928
2929
2929
2929
2929
2929
2929
2929
2929
2929
2930
2930
2930
2930
2930
2930
2930
2930
2930
2931
2931
2931
2931
2931
2931
2932
2932
2932
2932
2932
2932
2933
2933
2933
2933
2933
2933
2934
2934
2934
2943
2943
2943
2944
2944
2944
2944
2944
2944
2944
2944
2944
2950
2950
2950
2951
2951
2951
2951
2951
2951
2952
2952
2952
2952
2952
2952
2953
2953
2953
2953
2953
2953
2954
2954
2954
2954
2954
2954
2954
2954
2954
2954
2954
2954
2955
2955
2955
2963
2963
2963
2963
2963
2963
2963
2963
2963
2964
2964
2964
2974
2974
2974
2974
2974
2974
2975
2975
2975
2975
2975
2975
2982
2982
2982
2983
2983
2983
2983
2983
2983
2983
2983
2983
2994
2994
2994
2995
2995
2995
2995
2995
2995
2995
2995
2995
3002
3002
3002
3003
3003
3003
3003
3003
3003
3003
3003
3003
3014
3014
3014
3015
3015
3015
3015
3015
3015
3015
3015
3015
3023
3023
3023
3023
3023
3023
3023
3023
3023
3024
3024
3024
3034
3034
3034
3034
3034
3034
3035
3035
3035
3035
3035
3035
3043
3043
3043
3044
3044
3044
3044
3044
3044
3044
3044
3044
3050
3050
3050
3051
3051
3051
3051
3051
3051
3052
3052
3052
3052
3052
3052
3053
3053
3053
3053
3053
3053
3054
3054
3054
3054
3054
3054
3054
3054
3054
3054
3054
3054
3055
3055
3055
3064
3064
3064
3064
3064
3064
3065
3065
3065
3065
3065
3065
3065
3065
3065
3066
3066
3066
3066
3066
3066
3067
3067
3067
3067
3067
3067
3068
3068
3068
3068
3068
3068
3069
3069
3069
3069
3069
3069
3069
3069
3069
3070
3070
3070
3070
3070
3070
3070
3070
3070
3071
3071
3071
3071
3071
3071
3072
3072
3072
3072
3072
3072
3073
3073
3073
3073
3073
3073
3074
3074
3074
3085
3085
3085
3086
3086
3086
3086
3086
3086
3087
3087
3087
3087
3087
3087
3088
3088
3088
3088
3088
3088
3089
3089
3089
3304
3304
3304
3305
3305
3305
3305
3305
3305
3305
3305
3305
3306
3306
3306
3306
3306
3306
3307
3307
3307
3307
3307
3307
3308
3308
3308
3308
3308
3308
3309
3309
3309
3309
3309
3309
3309
3309
3309
3310
3310
3310
3323
3323
3323
3324
3324
3324
3324
3324
3324
3324
3324
3324
3324
3324
3324
3325
3325
3325
3329
3329
3329
3330
3330
3330
3330
3330
3330
3330
3330
3330
3331
3331
3331
3331
3331
3331
3332
3332
3332
3332
3332
3332
3333
3333
3333
3333
3333
3333
3334
3334
3334
3334
3334
3334
3343
3343
3343
3343
3343
3343
3343
3343
3343
3344
3344
3344
3354
3354
3354
3354
3354
3354
3355
3355
3355
3355
3355
3355
3362
3362
3362
3363
3363
3363
3363
3363
3363
3363
3363
3363
3375
3375
3375
3375
3375
3375
3375
3375
3375
3376
3376
3376
3382
3382
3382
3382
3382
3382
3382
3382
3382
3383
3383
3383
3395
3395
3395
3395
3395
3395
3396
3396
3396
3396
3396
3396
3402
3402
3402
3402
3402
3402
3402
3402
3402
3403
3403
3403
3415
3415
3415
3415
3415
3415
3416
3416
3416
3416
3416
3416
3422
3422
3422
3423
3423
3423
3423
3423
3423
3423
3423
3423
3435
3435
3435
3435
3435
3435
3435
3435
3435
3436
3436
3436
3443
3443
3443
3443
3443
3443
3443
3443
3443
3444
3444
3444
3454
3454
3454
3454
3454
3454
3455
3455
3455
3455
3455
3455
3463
3463
3463
3464
3464
3464
3464
3464
3464
3464
3464
3464
3464
3464
3464
3465
3465
3465
3469
3469
3469
3470
3470
3470
3470
3470
3470
3470
3470
3470
3471
3471
3471
3471
3471
3471
3472
3472
3472
3472
3472
3472
3473
3473
3473
3473
3473
3473
3474
3474
3474
3474
3474
3474
3484
3484
3484
3485
3485
3485
3485
3485
3485
3485
3485
3485
3486
3486
3486
3486
3486
3486
3487
3487
3487
3487
3487
3487
3488
3488
3488
3488
3488
3488
3489
3489
3489
3489
3489
3489
3489
3489
3489
3490
3490
3490
3704
3704
3704
3704
3704
3704
3705
3705
3705
3705
3705
3705
3706
3706
3706
3706
3706
3706
3707
3707
3707
3707
3707
3707
3708
3708
3708
3708
3708
3708
3709
3709
3709
3709
3709
3709
3710
3710
3710
3710
3710
3710
3723
3723
3723
3723
3723
3723
3724
3724
3724
3724
3724
3724
3730
3730
3730
3730
3730
3730
3731
3731
3731
3731
3731
3731
3732
3732
3732
3732
3732
3732
3733
3733
3733
3733
3733
3733
3734
3734
3734
3734
3734
3734
3734
3734
3734
3735
3735
3735
3742
3742
3742
3743
3743
3743
3743
3743
3743
3743
3743
3743
3754
3754
3754
3755
3755
3755
3755
3755
3755
3755
3755
3755
3762
3762
3762
3762
3762
3762
3762
3762
3762
3763
3763
3763
3775
3775
3775
3775
3775
3775
3776
3776
3776
3776
3776
3776
3782
3782
3782
3782
3782
3782
3796
3796
3796
3796
3796
3796
3802
3802
3802
3802
3802
3802
3816
3816
3816
3816
3816
3816
3822
3822
3822
3822
3822
3822
3822
3822
3822
3823
3823
3823
3835
3835
3835
3835
3835
3835
3836
3836
3836
3836
3836
3836
3842
3842
3842
3843
3843
3843
3843
3843
3843
3843
3843
3843
3854
3854
3854
3855
3855
3855
3855
3855
3855
3855
3855
3855
3863
3863
3863
3863
3863
3863
3864
3864
3864
3864
3864
3864
3870
3870
3870
3870
3870
3870
3871
3871
3871
3871
3871
3871
3872
3872
3872
3872
3872
3872
3873
3873
3873
3873
3873
3873
3874
3874
3874
3874
3874
3874
3874
3874
3874
3875
3875
3875
3884
3884
3884
3884
3884
3884
3885
3885
3885
3885
3885
3885
3886
3886
3886
3886
3886
3886
3887
3887
3887
3887
3887
3887
3888
3888
3888
3888
3888
3888
3889
3889
3889
3889
3889
3889
3890
3890
3890
3890
3890
3890
4104
4104
4104
4104
4104
4104
4105
4105
4105
4105
4105
4105
4106
4106
4106
4106
4106
4106
4107
4107
4107
4107
4107
4107
4108
4108
4108
4108
4108
4108
4109
4109
4109
4109
4109
4109
4110
4110
4110
4110
4110
4110
4123
4123
4123
4123
4123
4123
4124
4124
4124
4124
4124
4124
4130
4130
4130
4130
4130
4130
4131
4131
4131
4131
4131
4131
4132
4132
4132
4132
4132
4132
4133
4133
4133
4133
4133
4133
4134
4134
4134
4134
4134
4134
4134
4134
4134
4135
4135
4135
4142
4142
4142
4143
4143
4143
4143
4143
4143
4143
4143
4143
4154
4154
4154
4155
4155
4155
4155
4155
4155
4155
4155
4155
4162
4162
4162
4162
4162
4162
4162
4162
4162
4163
4163
4163
4175
4175
4175
4175
4175
4175
4176
4176
4176
4176
4176
4176
4182
4182
4182
4182
4182
4182
4196
4196
4196
4196
4196
4196
4202
4202
4202
4202
4202
4202
4216
4216
4216
4216
4216
4216
4222
4222
4222
4222
4222
4222
4222
4222
4222
4223
4223
4223
4235
4235
4235
4235
4235
4235
4236
4236
4236
4236
4236
4236
4242
4242
4242
4243
4243
4243
4243
4243
4243
4243
4243
4243
4254
4254
4254
4255
4255
4255
4255
4255
4255
4255
4255
4255
4263
4263
4263
4263
4263
4263
4264
4264
4264
4264
4264
4264
4270
4270
4270
4270
4270
4270
4271
4271
4271
4271
4271
4271
4272
4272
4272
4272
4272
4272
4273
4273
4273
4273
4273
4273
4274
4274
4274
4274
4274
4274
4274
4274
4274
4275
4275
4275
4284
4284
4284
4284
4284
4284
4285
4285
4285
4285
4285
4285
4286
4286
4286
4286
4286
4286
4287
4287
4287
4287
4287
4287
4288
4288
4288
4288
4288
4288
4289
4289
4289
4289
4289
4289
4290
4290
4290
4290
4290
4290
4504
4504
4504
4505
4505
4505
4505
4505
4505
4505
4505
4505
4506
4506
4506
4506
4506
4506
4507
4507
4507
4507
4507
4507
4508
4508
4508
4508
4508
4508
4509
4509
4509
4509
4509
4509
4509
4509
4509
4510
4510
4510
4523
4523
4523
4524
4524
4524
4524
4524
4524
4524
4524
4524
4524
4524
4524
4525
4525
4525
4529
4529
4529
4530
4530
4530
4530
4530
4530
4530
4530
4530
4531
4531
4531
4531
4531
4531
4532
4532
4532
4532
4532
4532
4533
4533
4533
4533
4533
4533
4534
4534
4534
4534
4534
4534
4543
4543
4543
4543
4543
4543
4543
4543
4543
4544
4544
4544
4554
4554
4554
4554
4554
4554
4555
4555
4555
4555
4555
4555
4562
4562
4562
4563
4563
4563
4563
4563
4563
4563
4563
4563
4575
4575
4575
4575
4575
4575
4575
4575
4575
4576
4576
4576
4582
4582
4582
4582
4582
4582
4582
4582
4582
4583
4583
4583
4595
4595
4595
4595
4595
4595
4596
4596
4596
4596
4596
4596
4602
4602
4602
4602
4602
4602
4602
4602
4602
4603
4603
4603
4615
4615
4615
4615
4615
4615
4616
4616
4616
4616
4616
4616
4622
4622
4622
4623
4623
4623
4623
4623
4623
4623
4623
4623
4635
4635
4635
4635
4635
4635
4635
4635
4635
4636
4636
4636
4643
4643
4643
4643
4643
4643
4643
4643
4643
4644
4644
4644
4654
4654
4654
4654
4654
4654
4655
4655
4655
4655
4655
4655
4663
4663
4663
4664
4664
4664
4664
4664
4664
4664
4664
4664
4664
4664
4664
4665
4665
4665
4669
4669
4669
4670
4670
4670
4670
4670
4670
4670
4670
4670
4671
4671
4671
4671
4671
4671
4672
4672
4672
4672
4672
4672
4673
4673
4673
4673
4673
4673
4674
4674
4674
4674
4674
4674
4684
4684
4684
4685
4685
4685
4685
4685
4685
4685
4685
4685
4686
4686
4686
4686
4686
4686
4687
4687
4687
4687
4687
4687
4688
4688
4688
4688
4688
4688
4689
4689
4689
4689
4689
4689
4689
4689
4689
4690
4690
4690
4905
4905
4905
4906
4906
4906
4906
4906
4906
4907
4907
4907
4907
4907
4907
4908
4908
4908
4908
4908
4908
4909
4909
4909
4924
4924
4924
4924
4924
4924
4925
4925
4925
4925
4925
4925
4925
4925
4925
4926
4926
4926
4926
4926
4926
4927
4927
4927
4927
4927
4927
4928
4928
4928
4928
4928
4928
4929
4929
4929
4929
4929
4929
4929
4929
4929
4930
4930
4930
4930
4930
4930
4930
4930
4930
4931
4931
4931
4931
4931
4931
4932
4932
4932
4932
4932
4932
4933
4933
4933
4933
4933
4933
4934
4934
4934
4943
4943
4943
4944
4944
4944
4944
4944
4944
4944
4944
4944
4950
4950
4950
4951
4951
4951
4951
4951
4951
4952
4952
4952
4952
4952
4952
4953
4953
4953
4953
4953
4953
4954
4954
4954
4954
4954
4954
4954
4954
4954
4954
4954
4954
4955
4955
4955
4963
4963
4963
4963
4963
4963
4963
4963
4963
4964
4964
4964
4974
4974
4974
4974
4974
4974
4975
4975
4975
4975
4975
4975
4982
4982
4982
4983
4983
4983
4983
4983
4983
4983
4983
4983
4994
4994
4994
4995
4995
4995
4995
4995
4995
4995
4995
4995
5002
5002
5002
5003
5003
5003
5003
5003
5003
5003
5003
5003
5014
5014
5014
5015
5015
5015
5015
5015
5015
5015
5015
5015
5023
5023
5023
5023
5023
5023
5023
5023
5023
5024
5024
5024
5034
5034
5034
5034
5034
5034
5035
5035
5035
5035
5035
5035
5043
5043
5043
5044
5044
5044
5044
5044
5044
5044
5044
5044
5050
5050
5050
5051
5051
5051
5051
5051
5051
5052
5052
5052
5052
5052
5052
5053
5053
5053
5053
5053
5053
5054
5054
5054
5054
5054
5054
5054
5054
5054
5054
5054
5054
5055
5055
5055
5064
5064
5064
5064
5064
5064
5065
5065
5065
5065
5065
5065
5065
5065
5065
5066
5066
5066
5066
5066
5066
5067
5067
5067
5067
5067
5067
5068
5068
5068
5068
5068
5068
5069
5069
5069
5069
5069
5069
5069
5069
5069
5070
5070
5070
5070
5070
5070
5070
5070
5070
5071
5071
5071
5071
5071
5071
5072
5072
5072
5072
5072
5072
5073
5073
5073
5073
5073
5073
5074
5074
5074
5085
5085
5085
5086
5086
5086
5086
5086
5086
5087
5087
5087
5087
5087
5087
5088
5088
5088
5088
5088
5088
5089
5089
5089
5324
5324
5324
5325
5325
5325
5325
5325
5325
5326
5326
5326
5326
5326
5326
5327
5327
5327
5327
5327
5327
5328
5328
5328
5328
5328
5328
5329
5329
5329
5329
5329
5329
5330
5330
5330
5344
5344
5344
5344
5344
5344
5345
5345
5345
5345
5345
5345
5345
5345
5345
5346
5346
5346
5346
5346
5346
5347
5347
5347
5347
5347
5347
5348
5348
5348
5348
5348
5348
5349
5349
5349
5349
5349
5349
5349
5349
5349
5350
5350
5350
5350
5350
5350
5350
5350
5350
5351
5351
5351
5351
5351
5351
5352
5352
5352
5352
5352
5352
5353
5353
5353
5353
5353
5353
5354
5354
5354
5363
5363
5363
5364
5364
5364
5364
5364
5364
5364
5364
5364
5364
5364
5364
5365
5365
5365
5369
5369
5369
5370
5370
5370
5370
5370
5370
5370
5370
5370
5371
5371
5371
5371
5371
5371
5372
5372
5372
5372
5372
5372
5373
5373
5373
5373
5373
5373
5374
5374
5374
5374
5374
5374
5383
5383
5383
5383
5383
5383
5384
5384
5384
5384
5384
5384
5390
5390
5390
5390
5390
5390
5391
5391
5391
5391
5391
5391
5392
5392
5392
5392
5392
5392
5393
5393
5393
5393
5393
5393
5394
5394
5394
5394
5394
5394
5394
5394
5394
5395
5395
5395
5403
5403
5403
5403
5403
5403
5404
5404
5404
5404
5404
5404
5410
5410
5410
5410
5410
5410
5411
5411
5411
5411
5411
5411
5412
5412
5412
5412
5412
5412
5413
5413
5413
5413
5413
5413
5414
5414
5414
5414
5414
5414
5414
5414
5414
5415
5415
5415
5423
5423
5423
5424
5424
5424
5424
5424
5424
5424
5424
5424
5424
5424
5424
5425
5425
5425
5429
5429
5429
5430
5430
5430
5430
5430
5430
5430
5430
5430
5431
5431
5431
5431
5431
5431
5432
5432
5432
5432
5432
5432
5433
5433
5433
5433
5433
5433
5434
5434
5434
5434
5434
5434
5444
5444
5444
5444
5444
5444
5445
5445
5445
5445
5445
5445
5445
5445
5445
5446
5446
5446
5446
5446
5446
5447
5447
5447
5447
5447
5447
5448
5448
5448
5448
5448
5448
5449
5449
5449
5449
5449
5449
5449
5449
5449
5450
5450
5450
5450
5450
5450
5450
5450
5450
5451
5451
5451
5451
5451
5451
5452
5452
5452
5452
5452
5452
5453
5453
5453
5453
5453
5453
5454
5454
5454
5464
5464
5464
5465
5465
5465
5465
5465
5465
5466
5466
5466
5466
5466
5466
5467
5467
5467
5467
5467
5467
5468
5468
5468
5468
5468
5468
5469
5469
5469
5469
5469
5469
5470
5470
5470
5745
5745
5745
5746
5746
5746
5746
5746
5746
5747
5747
5747
5747
5747
5747
5748
5748
5748
5748
5748
5748
5749
5749
5749
5764
5764
5764
5765
5765
5765
5765
5765
5765
5765
5765
5765
5766
5766
5766
5766
5766
5766
5767
5767
5767
5767
5767
5767
5768
5768
5768
5768
5768
5768
5769
5769
5769
5769
5769
5769
5769
5769
5769
5770
5770
5770
5784
5784
5784
5784
5784
5784
5785
5785
5785
5785
5785
5785
5786
5786
5786
5786
5786
5786
5787
5787
5787
5787
5787
5787
5788
5788
5788
5788
5788
5788
5789
5789
5789
5789
5789
5789
5790
5790
5790
5790
5790
5790
5804
5804
5804
5804
5804
5804
5805
5805
5805
5805
5805
5805
5806
5806
5806
5806
5806
5806
5807
5807
5807
5807
5807
5807
5808
5808
5808
5808
5808
5808
5809
5809
5809
5809
5809
5809
5810
5810
5810
5810
5810
5810
5824
5824
5824
5825
5825
5825
5825
5825
5825
5825
5825
5825
5826
5826
5826
5826
5826
5826
5827
5827
5827
5827
5827
5827
5828
5828
5828
5828
5828
5828
5829
5829
5829
5829
5829
5829
5829
5829
5829
5830
5830
5830
5845
5845
5845
5846
5846
5846
5846
5846
5846
5847
5847
5847
5847
5847
5847
5848
5848
5848
5848
5848
5848
5849
5849
5849

