# vtk DataFile Version 4.1
Header:
ASCII

DATASET UNSTRUCTURED_GRID
POINTS 72 double
-0.6 -0.33333333333333337 0
-0.4666666666666667 -0.33333333333333337 0
-0.33333333333333337 -0.33333333333333337 0
-0.19999999999999996 -0.33333333333333337 0
-0.06666666666666665 -0.33333333333333337 0
0.06666666666666665 -0.33333333333333337 0
0.19999999999999996 -0.33333333333333337 0
0.33333333333333326 -0.33333333333333337 0
0.46666666666666656 -0.33333333333333337 0
0.6000000000000001 -0.33333333333333337 0
-0.7333333333333334 -0.19999999999999996 0
-0.6 -0.19999999999999996 0
-0.4666666666666667 -0.19999999999999996 0
-0.33333333333333337 -0.19999999999999996 0
-0.19999999999999996 -0.19999999999999996 0
-0.07333333333333332 -0.2066666666666666 0.0
-0.059999999999999984 -0.1933333333333333 0.0
0.059999999999999984 -0.2066666666666666 0.0
0.07333333333333332 -0.1933333333333333 0.0
0.19999999999999996 -0.19999999999999996 0
0.33333333333333326 -0.19999999999999996 0
0.46666666666666656 -0.19999999999999996 0
0.6000000000000001 -0.19999999999999996 0
0.7333333333333334 -0.19999999999999996 0
-0.7333333333333334 -0.06666666666666665 0
-0.6 -0.06666666666666665 0
-0.4666666666666667 -0.06666666666666665 0
-0.19999999999999996 -0.06666666666666665 0
-0.07333333333333332 -0.07333333333333332 0.0
-0.059999999999999984 -0.059999999999999984 0.0
0.059999999999999984 -0.07333333333333332 0.0
0.07333333333333332 -0.059999999999999984 0.0
0.19999999999999996 -0.06666666666666665 0
0.46666666666666656 -0.06666666666666665 0
0.6000000000000001 -0.06666666666666665 0
0.7333333333333334 -0.06666666666666665 0
-0.7333333333333334 0.06666666666666665 0
-0.6 0.06666666666666665 0
-0.4666666666666667 0.06666666666666665 0
-0.19999999999999996 0.06666666666666665 0
-0.07333333333333332 0.059999999999999984 0.0
-0.059999999999999984 0.07333333333333332 0.0
0.059999999999999984 0.059999999999999984 0.0
0.07333333333333332 0.07333333333333332 0.0
0.19999999999999996 0.06666666666666665 0
0.46666666666666656 0.06666666666666665 0
0.6000000000000001 0.06666666666666665 0
0.7333333333333334 0.06666666666666665 0
-0.7333333333333334 0.19999999999999996 0
-0.6 0.19999999999999996 0
-0.4666666666666667 0.19999999999999996 0
-0.33333333333333337 0.19999999999999996 0
-0.19999999999999996 0.19999999999999996 0
-0.07333333333333332 0.1933333333333333 0.0
-0.059999999999999984 0.2066666666666666 0.0
0.059999999999999984 0.1933333333333333 0.0
0.07333333333333332 0.2066666666666666 0.0
0.19999999999999996 0.19999999999999996 0
0.33333333333333326 0.19999999999999996 0
0.46666666666666656 0.19999999999999996 0
0.6000000000000001 0.19999999999999996 0
0.7333333333333334 0.19999999999999996 0
-0.6 0.33333333333333326 0
-0.4666666666666667 0.33333333333333326 0
-0.33333333333333337 0.33333333333333326 0
-0.19999999999999996 0.33333333333333326 0
-0.06666666666666665 0.33333333333333326 0
0.06666666666666665 0.33333333333333326 0
0.19999999999999996 0.33333333333333326 0
0.33333333333333326 0.33333333333333326 0
0.46666666666666656 0.33333333333333326 0
0.6000000000000001 0.33333333333333326 0


POINT_DATA 72
SCALARS enriched_nodes_heaviside double 1
LOOKUP_TABLE default
0
0
0
0
0
1
1
1
1
1
0
0
0
0
0
0
1
0
1
1
1
1
1
1
0
0
0
0
0
1
0
1
1
1
1
1
0
0
0
0
0
1
0
1
1
1
1
1
0
0
0
0
0
0
1
0
1
1
1
1
1
1
0
0
0
0
0
1
1
1
1
1

