# vtk DataFile Version 4.1
Header:
ASCII

DATASET UNSTRUCTURED_GRID
POINTS 72 double
-0.4847401655816646 -0.2528526338749076 0.0
-0.53411788288798 -0.21416182056463925 0.0
-0.36150998205402496 -0.29302933402412057 0.0
-0.4384900179459751 -0.2739851204154263 0.0
-0.2281766487206916 -0.2739851204154262 0.0
-0.3051566846126418 -0.29302933402412057 0.0
-0.13254878377868676 -0.21416182056463923 0.0
-0.18192650108500202 -0.25285263387490753 0.0
0.181926501085002 -0.2528526338749076 0.0
0.13254878377868665 -0.21416182056463925 0.0
0.30515668461264167 -0.29302933402412057 0.0
0.22817664872069157 -0.2739851204154263 0.0
0.438490017945975 -0.2739851204154263 0.0
0.3615099820540249 -0.29302933402412057 0.0
0.5341178828879799 -0.21416182056463923 0.0
0.48474016558166455 -0.2528526338749076 0.0
-0.605419122279217 -0.11186362996925259 0.0
-0.6202244396784665 -0.07877715648393363 0.0
-0.5622945316086716 -0.18393384109657537 0.0
-0.5898968501943064 -0.14004027868994423 0.0
-0.10437213505799517 -0.1839338410965753 0.0
-0.07676981647236036 -0.14004027868994404 0.0
-0.04644222698820007 -0.07877715648393357 0.0
-0.06124754438744957 -0.11186362996925239 0.0
0.061247544387449546 -0.11186362996925259 0.0
0.04644222698819999 -0.07877715648393364 0.0
0.10437213505799506 -0.18393384109657537 0.0
0.07676981647236032 -0.14004027868994423 0.0
0.5622945316086715 -0.18393384109657526 0.0
0.5898968501943064 -0.14004027868994387 0.0
0.6202244396784666 -0.07877715648393355 0.0
0.6054191222792171 -0.11186362996925225 0.0
-0.6256435619576838 -0.038490017945975036 0.0
-0.6256435619576837 0.038490017945975036 0.0
-0.041023104708983016 -0.03849001794597504 0.0
-0.04102310470898301 0.03849001794597505 0.0
0.041023104708982905 -0.038490017945975036 0.0
0.04102310470898289 0.038490017945975036 0.0
0.6256435619576837 -0.038490017945975036 0.0
0.6256435619576837 0.03849001794597504 0.0
-0.6202244396784666 0.07877715648393364 0.0
-0.6054191222792171 0.1118636299692526 0.0
-0.5622945316086716 0.18393384109657535 0.0
-0.5898968501943064 0.14004027868994423 0.0
-0.07676981647236036 0.14004027868994404 0.0
-0.10437213505799514 0.1839338410965753 0.0
-0.04644222698820007 0.07877715648393359 0.0
-0.06124754438744957 0.11186362996925239 0.0
0.04644222698819999 0.07877715648393364 0.0
0.06124754438744956 0.1118636299692526 0.0
0.10437213505799506 0.18393384109657535 0.0
0.07676981647236034 0.14004027868994423 0.0
0.5898968501943064 0.14004027868994387 0.0
0.5622945316086715 0.18393384109657523 0.0
0.6202244396784665 0.07877715648393355 0.0
0.6054191222792171 0.11186362996925225 0.0
-0.53411788288798 0.21416182056463928 0.0
-0.4847401655816646 0.2528526338749076 0.0
-0.36150998205402496 0.29302933402412057 0.0
-0.4384900179459751 0.27398512041542633 0.0
-0.2281766487206916 0.2739851204154263 0.0
-0.3051566846126417 0.29302933402412057 0.0
-0.13254878377868679 0.21416182056463925 0.0
-0.18192650108500202 0.25285263387490753 0.0
0.13254878377868665 0.21416182056463928 0.0
0.18192650108500202 0.2528526338749076 0.0
0.3051566846126416 0.29302933402412057 0.0
0.22817664872069157 0.27398512041542633 0.0
0.438490017945975 0.27398512041542633 0.0
0.36150998205402485 0.29302933402412057 0.0
0.5341178828879799 0.21416182056463925 0.0
0.4847401655816645 0.2528526338749076 0.0


POINT_DATA 72
SCALARS element_ids double 1
LOOKUP_TABLE default
78
78
79
79
80
80
81
81
83
83
84
84
85
85
86
86
92
92
93
93
96
96
97
97
97
97
98
98
101
101
102
102
107
107
112
112
112
112
117
117
122
122
123
123
126
126
127
127
127
127
128
128
131
131
132
132
138
138
139
139
140
140
141
141
143
143
144
144
145
145
146
146

