# vtk DataFile Version 4.1
Header:
ASCII

DATASET UNSTRUCTURED_GRID
POINTS 1182 double
-0.9718233512793084 -0.9718233512793084 0
-0.8948433153873585 -0.9718233512793084 0
-0.9718233512793084 -0.8948433153873584 0
-0.8948433153873583 -0.8948433153873584 0
-0.8384900179459752 -0.9718233512793084 0
-0.761509982054025 -0.9718233512793084 0
-0.8384900179459751 -0.8948433153873584 0
-0.7615099820540251 -0.8948433153873584 0
-0.7051566846126418 -0.9718233512793084 0
-0.6281766487206917 -0.9718233512793084 0
-0.7051566846126418 -0.8948433153873584 0
-0.6281766487206917 -0.8948433153873584 0
-0.5718233512793084 -0.9718233512793084 0
-0.4948433153873583 -0.9718233512793084 0
-0.5718233512793084 -0.8948433153873584 0
-0.49484331538735826 -0.8948433153873584 0
-0.4384900179459751 -0.9718233512793084 0
-0.361509982054025 -0.9718233512793084 0
-0.4384900179459751 -0.8948433153873584 0
-0.361509982054025 -0.8948433153873584 0
-0.3051566846126417 -0.9718233512793084 0
-0.2281766487206916 -0.9718233512793084 0
-0.3051566846126418 -0.8948433153873584 0
-0.2281766487206916 -0.8948433153873584 0
-0.17182335127930834 -0.9718233512793084 0
-0.09484331538735827 -0.9718233512793084 0
-0.17182335127930837 -0.8948433153873584 0
-0.09484331538735827 -0.8948433153873584 0
-0.038490017945975036 -0.9718233512793084 0
0.03849001794597504 -0.9718233512793084 0
-0.03849001794597504 -0.8948433153873584 0
0.038490017945975036 -0.8948433153873584 0
0.09484331538735827 -0.9718233512793084 0
0.17182335127930834 -0.9718233512793084 0
0.09484331538735827 -0.8948433153873584 0
0.17182335127930834 -0.8948433153873584 0
0.22817664872069157 -0.9718233512793084 0
0.3051566846126417 -0.9718233512793084 0
0.2281766487206916 -0.8948433153873584 0
0.30515668461264167 -0.8948433153873584 0
0.36150998205402496 -0.9718233512793084 0
0.43849001794597503 -0.9718233512793084 0
0.3615099820540249 -0.8948433153873584 0
0.438490017945975 -0.8948433153873584 0
0.49484331538735826 -0.9718233512793084 0
0.5718233512793084 -0.9718233512793084 0
0.49484331538735826 -0.8948433153873584 0
0.5718233512793084 -0.8948433153873584 0
0.6281766487206917 -0.9718233512793084 0
0.7051566846126418 -0.9718233512793084 0
0.6281766487206917 -0.8948433153873584 0
0.7051566846126417 -0.8948433153873584 0
0.761509982054025 -0.9718233512793084 0
0.8384900179459751 -0.9718233512793084 0
0.761509982054025 -0.8948433153873584 0
0.8384900179459751 -0.8948433153873584 0
0.8948433153873585 -0.9718233512793084 0
0.9718233512793085 -0.9718233512793084 0
0.8948433153873584 -0.8948433153873584 0
0.9718233512793085 -0.8948433153873584 0
-0.9718233512793084 -0.8384900179459751 0
-0.8948433153873585 -0.8384900179459751 0
-0.9718233512793084 -0.761509982054025 0
-0.8948433153873583 -0.761509982054025 0
-0.8384900179459752 -0.8384900179459751 0
-0.761509982054025 -0.8384900179459751 0
-0.8384900179459751 -0.761509982054025 0
-0.7615099820540251 -0.761509982054025 0
-0.7051566846126418 -0.8384900179459751 0
-0.6281766487206917 -0.8384900179459751 0
-0.7051566846126418 -0.761509982054025 0
-0.6281766487206917 -0.761509982054025 0
-0.5718233512793084 -0.8384900179459751 0
-0.4948433153873583 -0.8384900179459751 0
-0.5718233512793084 -0.761509982054025 0
-0.49484331538735826 -0.761509982054025 0
-0.4384900179459751 -0.8384900179459751 0
-0.361509982054025 -0.8384900179459751 0
-0.4384900179459751 -0.761509982054025 0
-0.361509982054025 -0.761509982054025 0
-0.3051566846126417 -0.8384900179459751 0
-0.2281766487206916 -0.8384900179459751 0
-0.3051566846126418 -0.761509982054025 0
-0.2281766487206916 -0.761509982054025 0
-0.17182335127930834 -0.8384900179459751 0
-0.09484331538735827 -0.8384900179459751 0
-0.17182335127930837 -0.761509982054025 0
-0.09484331538735827 -0.761509982054025 0
-0.038490017945975036 -0.8384900179459751 0
0.03849001794597504 -0.8384900179459751 0
-0.03849001794597504 -0.761509982054025 0
0.038490017945975036 -0.761509982054025 0
0.09484331538735827 -0.8384900179459751 0
0.17182335127930834 -0.8384900179459751 0
0.09484331538735827 -0.761509982054025 0
0.17182335127930834 -0.761509982054025 0
0.22817664872069157 -0.8384900179459751 0
0.3051566846126417 -0.8384900179459751 0
0.2281766487206916 -0.761509982054025 0
0.30515668461264167 -0.761509982054025 0
0.36150998205402496 -0.8384900179459751 0
0.43849001794597503 -0.8384900179459751 0
0.3615099820540249 -0.761509982054025 0
0.438490017945975 -0.761509982054025 0
0.49484331538735826 -0.8384900179459751 0
0.5718233512793084 -0.8384900179459751 0
0.49484331538735826 -0.761509982054025 0
0.5718233512793084 -0.761509982054025 0
0.6281766487206917 -0.8384900179459751 0
0.7051566846126418 -0.8384900179459751 0
0.6281766487206917 -0.761509982054025 0
0.7051566846126417 -0.761509982054025 0
0.761509982054025 -0.8384900179459751 0
0.8384900179459751 -0.8384900179459751 0
0.761509982054025 -0.761509982054025 0
0.8384900179459751 -0.761509982054025 0
0.8948433153873585 -0.8384900179459751 0
0.9718233512793085 -0.8384900179459751 0
0.8948433153873584 -0.761509982054025 0
0.9718233512793085 -0.761509982054025 0
-0.9718233512793084 -0.7051566846126418 0
-0.8948433153873585 -0.7051566846126418 0
-0.9718233512793084 -0.6281766487206917 0
-0.8948433153873583 -0.6281766487206916 0
-0.8384900179459752 -0.7051566846126418 0
-0.761509982054025 -0.7051566846126418 0
-0.8384900179459751 -0.6281766487206917 0
-0.7615099820540251 -0.6281766487206916 0
-0.7051566846126418 -0.7051566846126418 0
-0.6281766487206917 -0.7051566846126418 0
-0.7051566846126418 -0.6281766487206917 0
-0.6281766487206917 -0.6281766487206916 0
-0.5718233512793084 -0.7051566846126418 0
-0.4948433153873583 -0.7051566846126418 0
-0.5718233512793084 -0.6281766487206917 0
-0.49484331538735826 -0.6281766487206916 0
-0.4384900179459751 -0.7051566846126418 0
-0.361509982054025 -0.7051566846126418 0
-0.4384900179459751 -0.6281766487206917 0
-0.361509982054025 -0.6281766487206916 0
-0.3051566846126417 -0.7051566846126418 0
-0.2281766487206916 -0.7051566846126418 0
-0.3051566846126418 -0.6281766487206917 0
-0.2281766487206916 -0.6281766487206916 0
-0.17182335127930834 -0.7051566846126418 0
-0.09484331538735827 -0.7051566846126418 0
-0.17182335127930837 -0.6281766487206917 0
-0.09484331538735827 -0.6281766487206916 0
-0.038490017945975036 -0.7051566846126418 0
0.03849001794597504 -0.7051566846126418 0
-0.03849001794597504 -0.6281766487206917 0
0.038490017945975036 -0.6281766487206916 0
0.09484331538735827 -0.7051566846126418 0
0.17182335127930834 -0.7051566846126418 0
0.09484331538735827 -0.6281766487206917 0
0.17182335127930834 -0.6281766487206916 0
0.22817664872069157 -0.7051566846126418 0
0.3051566846126417 -0.7051566846126418 0
0.2281766487206916 -0.6281766487206917 0
0.30515668461264167 -0.6281766487206916 0
0.36150998205402496 -0.7051566846126418 0
0.43849001794597503 -0.7051566846126418 0
0.3615099820540249 -0.6281766487206917 0
0.438490017945975 -0.6281766487206916 0
0.49484331538735826 -0.7051566846126418 0
0.5718233512793084 -0.7051566846126418 0
0.49484331538735826 -0.6281766487206917 0
0.5718233512793084 -0.6281766487206916 0
0.6281766487206917 -0.7051566846126418 0
0.7051566846126418 -0.7051566846126418 0
0.6281766487206917 -0.6281766487206917 0
0.7051566846126417 -0.6281766487206916 0
0.761509982054025 -0.7051566846126418 0
0.8384900179459751 -0.7051566846126418 0
0.761509982054025 -0.6281766487206917 0
0.8384900179459751 -0.6281766487206916 0
0.8948433153873585 -0.7051566846126418 0
0.9718233512793085 -0.7051566846126418 0
0.8948433153873584 -0.6281766487206917 0
0.9718233512793085 -0.6281766487206916 0
-0.9718233512793084 -0.5718233512793084 0
-0.8948433153873585 -0.5718233512793084 0
-0.9718233512793084 -0.4948433153873583 0
-0.8948433153873583 -0.4948433153873583 0
-0.8384900179459752 -0.5718233512793084 0
-0.761509982054025 -0.5718233512793084 0
-0.8384900179459751 -0.4948433153873583 0
-0.7615099820540251 -0.4948433153873583 0
-0.7051566846126418 -0.5718233512793084 0
-0.6281766487206917 -0.5718233512793084 0
-0.7051566846126418 -0.4948433153873583 0
-0.6281766487206917 -0.4948433153873583 0
-0.5718233512793084 -0.5718233512793084 0
-0.4948433153873583 -0.5718233512793084 0
-0.5718233512793084 -0.4948433153873583 0
-0.49484331538735826 -0.4948433153873583 0
-0.4384900179459751 -0.5718233512793084 0
-0.361509982054025 -0.5718233512793084 0
-0.4384900179459751 -0.4948433153873583 0
-0.361509982054025 -0.4948433153873583 0
-0.3051566846126417 -0.5718233512793084 0
-0.2281766487206916 -0.5718233512793084 0
-0.3051566846126418 -0.4948433153873583 0
-0.2281766487206916 -0.4948433153873583 0
-0.17182335127930834 -0.5718233512793084 0
-0.09484331538735827 -0.5718233512793084 0
-0.17182335127930837 -0.4948433153873583 0
-0.09484331538735827 -0.4948433153873583 0
-0.038490017945975036 -0.5718233512793084 0
0.03849001794597504 -0.5718233512793084 0
-0.03849001794597504 -0.4948433153873583 0
0.038490017945975036 -0.4948433153873583 0
0.09484331538735827 -0.5718233512793084 0
0.17182335127930834 -0.5718233512793084 0
0.09484331538735827 -0.4948433153873583 0
0.17182335127930834 -0.4948433153873583 0
0.22817664872069157 -0.5718233512793084 0
0.3051566846126417 -0.5718233512793084 0
0.2281766487206916 -0.4948433153873583 0
0.30515668461264167 -0.4948433153873583 0
0.36150998205402496 -0.5718233512793084 0
0.43849001794597503 -0.5718233512793084 0
0.3615099820540249 -0.4948433153873583 0
0.438490017945975 -0.4948433153873583 0
0.49484331538735826 -0.5718233512793084 0
0.5718233512793084 -0.5718233512793084 0
0.49484331538735826 -0.4948433153873583 0
0.5718233512793084 -0.4948433153873583 0
0.6281766487206917 -0.5718233512793084 0
0.7051566846126418 -0.5718233512793084 0
0.6281766487206917 -0.4948433153873583 0
0.7051566846126417 -0.4948433153873583 0
0.761509982054025 -0.5718233512793084 0
0.8384900179459751 -0.5718233512793084 0
0.761509982054025 -0.4948433153873583 0
0.8384900179459751 -0.4948433153873583 0
0.8948433153873585 -0.5718233512793084 0
0.9718233512793085 -0.5718233512793084 0
[...]
POINT_DATA 1182
VECTORS heat_flux double
104.68937387160736 0.10326184551854567 0.0
104.68937387160736 0.3853784539588787 0.0
104.97149048004758 0.10326184551854567 0.0
104.97149048004763 0.3853784539588787 0.0
103.76530458702688 0.5672066880513853 0.0
103.76530458702688 0.7818540534025544 0.0
103.9799519523782 0.5672066880513853 0.0
103.9799519523782 0.781854053402526 0.0
102.13814417701641 0.8955095712868797 0.0
102.13814417701641 0.9913748553559998 0.0
102.23400946108552 0.8955095712869365 0.0
102.23400946108552 0.9913748553559856 0.0
100.18997130611275 1.0129361036018167 0.0
100.18997130611275 0.9759772452149207 0.0
100.15301244772576 1.0129361036018736 0.0
100.15301244772581 0.975977245214878 0.0
98.34319954835118 0.9126626298728411 0.0
98.34319954835118 0.776642742283741 0.0
98.20717966076205 0.9126626298728411 0.0
98.20717966076205 0.776642742283741 0.0
96.91946165929133 0.663158232997688 0.0
96.91946165929133 0.4891326753451395 0.0
96.74543610163877 0.663158232997688 0.0
96.74543610163877 0.4891326753451395 0.0
96.06304898574928 0.36430958157890814 0.0
96.06304898574928 0.1973121051042135 0.0
95.89605150927457 0.36430958157890814 0.0
95.8960515092746 0.19731210510420993 0.0
95.78299172903765 0.07862747775212142 0.0
95.78299172903766 -0.0786274777764806 0.0
95.62573677350906 0.07862747775212142 0.0
95.62573677350906 -0.0786274777764806 0.0
96.06304898579617 -0.1973121051277289 0.0
96.06304898579617 -0.3643095816001587 0.0
95.89605150932377 -0.197312105127736 0.0
95.8960515093238 -0.3643095816001569 0.0
96.9194616593773 -0.48913267536391913 0.0
96.9194616593773 -0.6631582330121013 0.0
96.74543610172911 -0.48913267536391913 0.0
96.74543610172911 -0.663158233012112 0.0
98.3431995484618 -0.7766427422946265 0.0
98.3431995484618 -0.912662629878092 0.0
98.20717966087824 -0.7766427422945981 0.0
98.20717966087824 -0.912662629878092 0.0
100.18997130623036 -0.9759772452163133 0.0
100.18997130623036 -1.0129361035985767 0.0
100.1530124478482 -0.9759772452163133 0.0
100.1530124478482 -1.0129361035985767 0.0
102.13814417712625 -0.9913748553503297 0.0
102.13814417712625 -0.8955095712789785 0.0
102.2340094611975 -0.9913748553503297 0.0
102.2340094611975 -0.8955095712789642 0.0
103.76530458712271 -0.7818540533944542 0.0
103.76530458712271 -0.5672066880445357 0.0
103.97995195247256 -0.7818540533945111 0.0
103.97995195247256 -0.5672066880446636 0.0
104.6893738716924 -0.3853784539538765 0.0
104.6893738716924 -0.10326184551746564 0.0
104.97149048012903 -0.3853784539539902 0.0
104.97149048012909 -0.10326184551735196 0.0
105.41047991301443 0.3357275874483321 0.0
105.41047991301443 1.252952413859333 0.0
106.32770473942554 0.3357275874482184 0.0
106.3277047394256 1.252952413859333 0.0
104.3164197757231 1.8465814360786226 0.0
104.3164197757231 2.551181259217884 0.0
105.02101959886255 1.8465814360786794 0.0
105.02101959886255 2.5511812592179695 0.0
102.38256706534229 2.922551168935456 0.0
102.38256706534229 3.2325528075465115 0.0
102.69256870395333 2.9225511689353993 0.0
102.69256870395333 3.2325528075464973 0.0
100.08391682073636 3.290453536568066 0.0
100.08391682073636 3.138639631439176 0.0
99.93210291560746 3.290453536568009 0.0
99.93210291560746 3.1386396314390765 0.0
97.97774126788269 2.903420226912374 0.0
97.97774126788269 2.4126027679480444 0.0
97.48692380891848 2.903420226912374 0.0
97.48692380891848 2.4126027679480444 0.0
96.46887712265939 2.020089905375414 0.0
96.46887712265939 1.4385422811668747 0.0
95.88732949845087 2.020089905375414 0.0
95.88732949845087 1.4385422811668747 0.0
95.65415907801238 1.044913964691517 0.0
95.6541590780124 0.5510490289915175 0.0
95.16029414231238 1.044913964691517 0.0
95.16029414231238 0.551049028991514 0.0
95.41167791257116 0.21378236414353324 0.0
95.41167791257118 -0.2137823642204868 0.0
94.98411318420715 0.21378236414353324 0.0
94.98411318420716 -0.2137823642204868 0.0
95.65415907806485 -0.5510490290660073 0.0
95.65415907806485 -1.044913964759294 0.0
95.16029414237158 -0.5510490290660144 0.0
95.16029414237161 -1.0449139647592922 0.0
96.4688771227564 -1.4385422812271003 0.0
96.46887712275641 -2.020089905421674 0.0
95.88732949856181 -1.4385422812271003 0.0
95.88732949856181 -2.0200899054216883 0.0
97.97774126800795 -2.4126027679822926 0.0
97.97774126800795 -2.9034202269274587 0.0
97.48692380906269 -2.412602767982264 0.0
97.48692380906269 -2.9034202269274587 0.0
100.08391682086659 -3.138639631441265 0.0
100.08391682086659 -3.2904535365536702 0.0
99.93210291575411 -3.138639631441208 0.0
99.93210291575411 -3.2904535365536276 0.0
102.38256706545747 -3.232552807523575 0.0
102.38256706545747 -2.922551168905656 0.0
102.69256870407531 -3.232552807523575 0.0
102.69256870407531 -2.922551168905713 0.0
104.31641977581508 -2.5511812591878424 0.0
104.31641977581508 -1.8465814360535973 0.0
105.02101959894918 -2.551181259187672 0.0
105.02101959894912 -1.8465814360535973 0.0
105.41047991308969 -1.2529524138412285 0.0
105.41047991308969 -0.3357275874433583 0.0
106.32770473948756 -1.2529524138412285 0.0
106.32770473948761 -0.335727587443472 0.0
107.30770392339261 0.6442715965188199 0.0
107.30770392339261 2.404454332081741 0.0
109.06788665895556 0.6442715965188199 0.0
109.06788665895556 2.4044543320817127 0.0
105.79747943835143 3.567284333318412 0.0
105.79747943835143 4.984012241699645 0.0
107.21420734673268 3.567284333318412 0.0
107.21420734673268 4.9840122416996735 0.0
103.04030523003387 5.736838697551775 0.0
103.04030523003387 6.376870915840314 0.0
103.68033744832246 5.736838697551775 0.0
103.68033744832246 6.376870915840257 0.0
99.72899518773593 6.463598985027886 0.0
99.72899518773593 6.060512258202138 0.0
99.32590846091023 6.463598985027886 0.0
99.32590846091023 6.060512258202166 0.0
96.87041078341667 5.4761109093556115 0.0
96.87041078341666 4.282583459120914 0.0
95.67688333318199 5.4761109093556115 0.0
95.67688333318193 4.282583459120914 0.0
95.21709771475818 3.3883515124990424 0.0
95.21709771475818 2.1387918508115646 0.0
93.96753805307073 3.3883515124990424 0.0
93.96753805307073 2.1387918508115646 0.0
94.70589794381343 1.4077921850952748 0.0
94.70589794381343 0.6602236197299405 0.0
93.95832937844808 1.4077921850952748 0.0
93.95832937844808 0.6602236197299334 0.0
94.66421955621843 0.2232004580902327 0.0
94.66421955621843 -0.2232004582285132 0.0
94.21781863989969 0.2232004580902327 0.0
94.21781863989969 -0.2232004582285132 0.0
94.70589794387733 -0.6602236198659668 0.0
94.70589794387733 -1.4077921852251212 0.0
93.95832937851823 -0.6602236198659668 0.0
93.95832937851823 -1.4077921852251212 0.0
95.21709771488406 -2.1387918509293087 0.0
95.21709771488406 -3.3883515125897965 0.0
93.96753805322358 -2.1387918509293087 0.0
93.96753805322356 -3.3883515125897787 0.0
96.87041078358241 -4.282583459187265 0.0
96.87041078358241 -5.4761109093821645 0.0
95.67688333338751 -4.282583459187293 0.0
95.67688333338751 -5.4761109093821645 0.0
99.72899518790373 -6.060512258199083 0.0
99.72899518790373 -6.463598984983918 0.0
99.3259084611189 -6.060512258199026 0.0
99.3259084611189 -6.463598984983875 0.0
103.0403052301631 -6.376870915776578 0.0
103.0403052301631 -5.736838697475008 0.0
103.68033744846463 -6.376870915776578 0.0
103.68033744846463 -5.736838697474994 0.0
105.79747943843097 -4.984012241623475 0.0
105.79747943843095 -3.5672843332563104 0.0
107.21420734679822 -4.984012241623475 0.0
107.21420734679822 -3.567284333256225 0.0
107.30770392343763 -2.404454332036778 0.0
107.30770392343763 -0.644271596506826 0.0
109.06788665896784 -2.404454332036778 0.0
109.06788665896784 -0.644271596506826 0.0
110.76586691088295 1.053708655408741 0.0
110.76586691088295 3.9324942383600785 0.0
113.64465249383443 1.0537086554086272 0.0
113.64465249383443 3.9324942383599932 0.0
108.68733460187964 5.940771744197605 0.0
108.68733460187964 8.548702342892256 0.0
111.29526520057425 5.940771744197605 0.0
111.29526520057425 8.54870234289234 0.0
104.46915808654343 10.057823780408228 0.0
104.46915808654343 11.572889623798531 0.0
105.98422392993376 10.057823780408285 0.0
105.98422392993376 11.572889623798474 0.0
98.85657086395722 11.805644595879073 0.0
98.85657086395722 10.926477161927124 0.0
97.97740343000521 11.805644595879016 0.0
97.97740343000521 10.926477161927082 0.0
94.15129138397495 9.515948964613557 0.0
94.15129138397495 6.541481697996744 0.0
91.17682411735814 9.515948964613557 0.0
91.17682411735814 6.541481697996744 0.0
92.47879590562856 4.421379547969451 0.0
92.47879590562856 1.603620023475706 0.0
89.6610363811348 4.421379547969451 0.0
89.6610363811348 1.603620023475706 0.0
93.42960823267732 0.3171563959790973 0.0
93.42960823267732 -0.37976807193730266 0.0
92.73268376476094 0.3171563959790973 0.0
92.73268376476094 -0.3797680719373062 0.0
94.32274802798182 -0.366536667986189 0.0
94.32274802798182 0.3665366677801156 0.0
95.05582136374812 -0.366536667986189 0.0
95.05582136374812 0.3665366677801156 0.0
93.42960823274903 0.3797680717305596 0.0
93.42960823274903 -0.3171563961877055 0.0
92.7326837648308 0.3797680717305525 0.0
92.7326837648308 -0.3171563961877055 0.0
92.47879590579275 -1.6036200236835185 0.0
92.47879590579275 -4.421379548173192 0.0
89.66103638130305 -1.6036200236835185 0.0
89.66103638130305 -4.421379548173206 0.0
94.15129138424177 -6.541481698152296 0.0
94.15129138424177 -9.515948964641467 0.0
91.1768241177526 -6.541481698152296 0.0
91.1768241177526 -9.515948964641467 0.0
98.85657086420629 -10.926477161882787 0.0
98.85657086420629 -11.805644595765514 0.0
97.97740343032353 -10.926477161882758 0.0
97.97740343032353 -11.805644595765528 0.0
104.46915808670379 -11.572889623646233 0.0
104.46915808670379 -10.057823780219323 0.0
105.98422393013067 -11.572889623646233 0.0
105.98422393013067 -10.057823780219323 0.0
108.68733460192175 -8.548702342708168 0.0
108.68733460192175 -5.940771744063085 0.0
111.29526520056686 -8.548702342708168 0.0
111.29526520056686 -5.9407717440629995 0.0
110.76586691085845 -3.932494238268248 0.0
110.76586691085845 -1.053708655384014 0.0
113.64465249374268 -3.932494238268248 0.0
113.64465249374268 -1.053708655384014 0.0
116.1757661913006 1.4774050420575122 0.0
116.1757661913006 5.513750680317344 0.0
120.21211182956034 1.4774050420575122 0.0
120.21211182956034 5.513750680317344 0.0
113.90931410656373 8.650635777935292 0.0
113.90931410656373 13.184419603873636 0.0
118.44309793250204 8.650635777935292 0.0
118.44309793250204 13.184419603873579 0.0
108.03308292796827 16.338206070381773 0.0
108.03308292796827 20.420727107166798 0.0
112.11560396475335 16.338206070381773 0.0
112.11560396475335 20.420727107166783 0.0
97.70018233585799 21.95961003897372 0.0
97.70018233585799 22.081395358785528 0.0
97.82196765566977 21.95961003897372 0.0
97.82196765566977 22.081395358785514 0.0
86.85914097612576 18.897019320719238 0.0
86.85914097612576 10.07535687450573 0.0
78.03747852991222 18.897019320719238 0.0
78.03747852991222 10.07535687450573 0.0
85.49913730431943 3.715876806485312 0.0
85.49913730431943 -4.836883402854625 0.0
76.94637709497955 3.715876806485312 0.0
76.94637709497955 -4.836883402854625 0.0
93.09778290594255 -7.34721971099178 0.0
93.09778290594255 -5.652825839567448 0.0
94.79217677736688 -7.34721971099178 0.0
94.79217677736688 -5.6528258395674555 0.0
97.45118650275636 -2.9055929633287008 0.0
97.45118650275636 2.905592963354797 0.0
103.26237242943985 -2.9055929633287008 0.0
103.26237242943985 2.905592963354797 0.0
93.09778290581997 5.6528258394017925 0.0
93.09778290581997 7.347219710302241 0.0
94.79217677672045 5.6528258394018 0.0
94.79217677672045 7.347219710302243 0.0
85.49913730466179 4.8368834021460145 0.0
85.49913730466179 -3.7158768067222177 0.0
76.94637709579358 4.8368834021460145 0.0
76.94637709579358 -3.7158768067222034 0.0
86.85914097652528 -10.075356874611742 0.0
86.85914097652528 -18.89701932093938 0.0
78.03747853019766 -10.0753568746118 0.0
78.03747853019766 -18.89701932093938 0.0
97.70018233637845 -22.08139535887048 0.0
97.70018233637845 -21.959610038575583 0.0
97.82196765667337 -22.081395358870424 0.0
97.82196765667337 -21.95961003857559 0.0
108.03308292815183 -20.420727106618756 0.0
108.03308292815183 -16.33820606990706 0.0
112.11560396486351 -20.420727106618756 0.0
112.11560396486351 -16.33820606990706 0.0
113.90931410647356 -13.184419603490369 0.0
113.90931410647356 -8.65063577772824 0.0
118.44309793223567 -13.184419603490369 0.0
118.44309793223567 -8.650635777728183 0.0
116.1757661911542 -5.513750680204907 0.0
116.1757661911542 -1.477405042027499 0.0
120.21211182933166 -5.513750680204907 0.0
120.21211182933166 -1.4774050420274705 0.0
123.30025373565167 1.6107368640336972 0.0
123.30025373565167 6.011351814198349 0.0
127.70086868581632 1.6107368640338109 0.0
127.70086868581632 6.011351814198349 0.0
122.50147333759121 10.02098402776079 0.0
122.50147333759121 16.57488800471387 0.0
129.05537731454433 10.02098402776079 0.0
129.05537731454433 16.57488800471384 0.0
117.34157706069256 22.70545003923405 0.0
117.34157706069256 32.900553019542954 0.0
127.53668004100149 22.70545003923411 0.0
127.53668004100149 32.900553019542954 0.0
107.73965914923832 41.976142733477076 0.0
104.4295333795475 46.200568133724914 0.0
101.15376501167451 39.614673996161116 0.0
98.95846696581984 47.60870993380743 0.0
98.95846696581984 41.022815796243634 0.0
102.23423533369271 47.60870993380743 0.0
108.84303440580197 37.41937595030646 0.0
108.84303440580197 39.780844687622334 0.0
102.2571402682382 37.41937595030646 0.0
174.08202698305786 1.9753988098614172 0.0
176.74513525207658 -1.4232944650416357 0.0
176.74513525207658 1.9753988103943243 0.0
59.38656936991516 42.917872864579984 0.0
64.49728515032953 22.259467519334088 0.0
69.66188648664105 42.91787286457998 0.0
176.30675334743273 6.44246830390216 0.0
176.80166097733263 4.441965259616154 0.0
177.80713062620634 6.442468302481075 0.0
73.08699219221647 15.373332404252398 0.0
73.08699219221647 36.03173774949826 0.0
67.92239085590502 15.37333240425239 0.0
178.30725638816602 3.7751309122313614 0.0
178.30725638816602 5.77563395722791 0.0
177.30178673787123 3.7751309122313614 0.0
180.74858647594283 8.160094964182463 0.0
179.16417531438356 11.31247191779039 0.0
178.3843037628685 8.160094964182463 0.0
68.13500064463332 -29.51730399444636 0.0
62.434325452090796 -6.714603224276264 0.0
56.79312901342211 -29.51730399444636 0.0
179.95226955349608 12.363264236370242 0.0
181.53668071647644 9.210887282051772 0.0
181.53668071647644 12.363264236370242 0.0
66.21494932916103 0.8862970324467504 0.0
71.91562452170355 -21.916403737723318 0.0
71.91562452170355 0.8862970324467504 0.0
186.51171806425282 15.288169441873833 0.0
186.51171806425282 20.91050809696071 0.0
182.10623180152652 15.288169439031662 0.0
102.12004151499437 -33.74677937761196 0.0
97.08928636249226 -23.632504756938403 0.0
97.08928636249226 -33.74677937761196 0.0
102.15521772544051 -18.098528744021806 0.0
112.26949234611403 -21.72514994661892 0.0
112.26949234611403 -18.098528744021806 0.0
110.57498585672363 -25.09657482017663 0.0
100.46071123605007 -21.469953617579524 0.0
105.4914663885522 -31.584228238253072 0.0
112.52782224789264 -9.751246866650774 0.0
112.52782224789264 9.751246865658514 0.0
132.03031598020192 -9.751246866650774 0.0
132.03031598020192 9.751246865658514 0.0
110.57498585914131 25.096574820946763 0.0
105.4914663898783 31.584228240416273 0.0
100.46071123629599 21.469953617570958 0.0
97.08928636201406 33.74677938023924 0.0
97.08928636201406 23.632504757393974 0.0
102.12004151559637 33.74677938023924 0.0
112.26949234889565 18.09852874328913 0.0
112.26949234889565 21.725149946664914 0.0
102.15521772605038 18.09852874328913 0.0
182.1062318143163 -15.288169445604183 0.0
186.51171806425282 -20.910508084170942 0.0
186.51171806141065 -15.28816944489364 0.0
56.79312901411572 29.517303997666836 0.0
62.43432545288145 6.714603227104547 0.0
68.13500064552206 29.517303997666836 0.0
178.3843037642896 -8.16009496844572 0.0
179.1641753200679 -11.312471929159074 0.0
180.7485864873115 -8.160094965603548 0.0
71.91562452265764 -0.8862970297492598 0.0
71.91562452265764 21.916403740813028 0.0
66.21494933001706 -0.8862970297492598 0.0
181.53668072500295 -12.363264244186212 0.0
181.53668072500295 -9.210887287736114 0.0
179.9522695620226 -12.363264244186212 0.0
177.807130620522 -6.442468301770532 0.0
176.80166097591155 -4.441965265300496 0.0
176.30675334601165 -6.442468301770532 0.0
69.66188648682363 -42.91787286242315 0.0
64.49728515045067 -22.25946751693131 0.0
59.38656936997543 -42.917872862423145 0.0
177.30178673502905 -3.7751309207578743 0.0
178.30725637679734 -5.77563395722791 0.0
178.30725637679734 -3.7751309200473315 0.0
67.9223908560666 -15.37333240176756 0.0
73.08699219243955 -36.03173774725949 0.0
73.08699219243955 -15.37333240176756 0.0
107.73965915038801 -41.97614273142659 0.0
101.15376501284463 -39.61467399411796 0.0
104.42953338070738 -46.20056813166116 0.0
176.74513523502355 -1.9753988198090155 0.0
176.7451352407079 1.4232944678838066 0.0
174.08202696742592 -1.9753988198090155 0.0
102.23423533485962 -47.60870993173946 0.0
98.95846696699685 -41.022815794196156 0.0
98.95846696699691 -47.60870993173946 0.0
102.25714026940474 -37.41937594827021 0.0
108.84303440694805 -39.780844685578856 0.0
108.84303440694801 -37.4193759482702 0.0
117.34157706040317 -32.90055301788192 0.0
117.34157706040318 -22.70545003859121 0.0
127.53668003969386 -32.90055301788192 0.0
127.53668003969386 -22.70545003859121 0.0
122.5014733372252 -16.574888004478908 0.0
122.50147333722519 -10.020984027621466 0.0
129.05537731408253 -16.57488800447885 0.0
129.05537731408253 -10.02098402762158 0.0
123.30025373537092 -6.01135181411621 0.0
123.30025373537092 -1.6107368640119262 0.0
127.70086868547543 -6.0113518141161535 0.0
127.70086868547543 -1.610736864011784 0.0
130.4096435094751 1.0980379596250032 0.0
130.4096435094751 4.097933453960053 0.0
133.40953900381004 1.0980379596251169 0.0
133.40953900381004 4.0979334539600245 0.0
133.5201693038557 7.2618680533677775 0.0
133.5201693038557 12.906002636439979 0.0
139.1643038869281 7.261868053367891 0.0
139.1643038869281 12.906002636440036 0.0
157.67824726485588 35.03083852203147 0.0
151.56474521051882 37.766468185784916 0.0
157.67824726485588 23.54260090729713 0.0
133.9718018007096 38.67834474036897 0.0
133.9718018007096 24.454477461881368 0.0
142.08216702486027 38.67834474036897 0.0
152.93695817202686 19.713188369052205 0.0
146.82345611768977 33.93705564753995 0.0
138.71309089353917 19.713188369052205 0.0
183.4247314974391 0.8624424017611432 0.0
179.23786513449613 2.735953808752356 0.0
179.23786513449613 0.8624424086889348 0.0
179.07434965422908 0.4967288077750709 0.0
179.07434965422908 1.273099408649614 0.0
178.74066099068386 0.496728802090729 0.0
177.89162820704973 1.6246826223920152 0.0
177.89162820704973 1.1266910632912186 0.0
178.6679988100559 1.6246826238131007 0.0
178.03918885164194 0.8679008644207897 0.0
178.48187078755018 0.5895218237128574 0.0
178.8155594510954 1.365892420324144 0.0
143.21396240701958 48.47801791065055 0.0
119.08223994049744 63.653170143006975 0.0
119.08223994049744 48.47801791065059 0.0
179.17883370373033 2.3271005773040088 0.0
179.17883370373033 3.792629368604139 0.0
180.64436249289884 2.3271005773040088 0.0
180.64436249289884 3.792629368604139 0.0
182.8886335822233 5.152865946911334 0.0
182.8886335822233 7.403572608666309 0.0
185.13934024042555 5.152865946911334 0.0
185.13934024042555 7.403572608666309 0.0
193.3595991602033 14.510577687332216 0.0
194.9799302451538 10.74066412911634 0.0
194.9799302451538 14.510577687332216 0.0
193.00676490274782 9.033440380790125 0.0
189.23685133813706 11.45159625366432 0.0
189.23685133813706 9.033440380790125 0.0
125.30804869591265 -36.294281712822034 0.0
125.30804869591262 -54.531710724242075 0.0
154.3094431246359 -36.294281712822034 0.0
189.95337883325192 12.70823411090305 0.0
193.72329239217834 10.290078233765598 0.0
192.10296130722782 14.059991792692017 0.0
167.88288057651022 -20.1434258054593 0.0
167.88288057651016 10.071712905207946 0.0
150.65438670462856 -20.1434258054593 0.0
210.21342643052776 -15.031896357520225 0.0
205.28361949345708 -12.82593879281535 0.0