# vtk DataFile Version 4.1
Header:
ASCII

DATASET UNSTRUCTURED_GRID
POINTS 256 double
-1 -1 0
-0.8666666666666667 -1 0
-0.7333333333333334 -1 0
-0.6 -1 0
-0.4666666666666667 -1 0
-0.33333333333333337 -1 0
-0.19999999999999996 -1 0
-0.06666666666666665 -1 0
0.06666666666666665 -1 0
0.19999999999999996 -1 0
0.33333333333333326 -1 0
0.46666666666666656 -1 0
0.6000000000000001 -1 0
0.7333333333333334 -1 0
0.8666666666666667 -1 0
1 -1 0
-1 -0.8666666666666667 0
-0.8666666666666667 -0.8666666666666667 0
-0.7333333333333334 -0.8666666666666667 0
-0.6 -0.8666666666666667 0
-0.4666666666666667 -0.8666666666666667 0
-0.33333333333333337 -0.8666666666666667 0
-0.19999999999999996 -0.8666666666666667 0
-0.06666666666666665 -0.8666666666666667 0
0.06666666666666665 -0.8666666666666667 0
0.19999999999999996 -0.8666666666666667 0
0.33333333333333326 -0.8666666666666667 0
0.46666666666666656 -0.8666666666666667 0
0.6000000000000001 -0.8666666666666667 0
0.7333333333333334 -0.8666666666666667 0
0.8666666666666667 -0.8666666666666667 0
1 -0.8666666666666667 0
-1 -0.7333333333333334 0
-0.8666666666666667 -0.7333333333333334 0
-0.7333333333333334 -0.7333333333333334 0
-0.6 -0.7333333333333334 0
-0.4666666666666667 -0.7333333333333334 0
-0.33333333333333337 -0.7333333333333334 0
-0.19999999999999996 -0.7333333333333334 0
-0.06666666666666665 -0.7333333333333334 0
0.06666666666666665 -0.7333333333333334 0
0.19999999999999996 -0.7333333333333334 0
0.33333333333333326 -0.7333333333333334 0
0.46666666666666656 -0.7333333333333334 0
0.6000000000000001 -0.7333333333333334 0
0.7333333333333334 -0.7333333333333334 0
0.8666666666666667 -0.7333333333333334 0
1 -0.7333333333333334 0
-1 -0.6 0
-0.8666666666666667 -0.6 0
-0.7333333333333334 -0.6 0
-0.6 -0.6 0
-0.4666666666666667 -0.6 0
-0.33333333333333337 -0.6 0
-0.19999999999999996 -0.6 0
-0.06666666666666665 -0.6 0
0.06666666666666665 -0.6 0
0.19999999999999996 -0.6 0
0.33333333333333326 -0.6 0
0.46666666666666656 -0.6 0
0.6000000000000001 -0.6 0
0.7333333333333334 -0.6 0
0.8666666666666667 -0.6 0
1 -0.6 0
-1 -0.4666666666666667 0
-0.8666666666666667 -0.4666666666666667 0
-0.7333333333333334 -0.4666666666666667 0
-0.6 -0.4666666666666667 0
-0.4666666666666667 -0.4666666666666667 0
-0.33333333333333337 -0.4666666666666667 0
-0.19999999999999996 -0.4666666666666667 0
-0.06666666666666665 -0.4666666666666667 0
0.06666666666666665 -0.4666666666666667 0
0.19999999999999996 -0.4666666666666667 0
0.33333333333333326 -0.4666666666666667 0
0.46666666666666656 -0.4666666666666667 0
0.6000000000000001 -0.4666666666666667 0
0.7333333333333334 -0.4666666666666667 0
0.8666666666666667 -0.4666666666666667 0
1 -0.4666666666666667 0
-1 -0.33333333333333337 0
-0.8666666666666667 -0.33333333333333337 0
-0.7333333333333334 -0.33333333333333337 0
-0.6 -0.33333333333333337 0
-0.4666666666666667 -0.33333333333333337 0
-0.33333333333333337 -0.33333333333333337 0
-0.19999999999999996 -0.33333333333333337 0
-0.06666666666666665 -0.33333333333333337 0
0.06666666666666665 -0.33333333333333337 0
0.19999999999999996 -0.33333333333333337 0
0.33333333333333326 -0.33333333333333337 0
0.46666666666666656 -0.33333333333333337 0
0.6000000000000001 -0.33333333333333337 0
0.7333333333333334 -0.33333333333333337 0
0.8666666666666667 -0.33333333333333337 0
1 -0.33333333333333337 0
-1 -0.19999999999999996 0
-0.8666666666666667 -0.19999999999999996 0
-0.7333333333333334 -0.19999999999999996 0
-0.6 -0.19999999999999996 0
-0.4666666666666667 -0.19999999999999996 0
-0.33333333333333337 -0.19999999999999996 0
-0.19999999999999996 -0.19999999999999996 0
-0.06666666666666665 -0.19999999999999996 0
0.06666666666666665 -0.19999999999999996 0
0.19999999999999996 -0.19999999999999996 0
0.33333333333333326 -0.19999999999999996 0
0.46666666666666656 -0.19999999999999996 0
0.6000000000000001 -0.19999999999999996 0
0.7333333333333334 -0.19999999999999996 0
0.8666666666666667 -0.19999999999999996 0
1 -0.19999999999999996 0
-1 -0.06666666666666665 0
-0.8666666666666667 -0.06666666666666665 0
-0.7333333333333334 -0.06666666666666665 0
-0.6 -0.06666666666666665 0
-0.4666666666666667 -0.06666666666666665 0
-0.33333333333333337 -0.06666666666666665 0
-0.19999999999999996 -0.06666666666666665 0
-0.06666666666666665 -0.06666666666666665 0
0.06666666666666665 -0.06666666666666665 0
0.19999999999999996 -0.06666666666666665 0
0.33333333333333326 -0.06666666666666665 0
0.46666666666666656 -0.06666666666666665 0
0.6000000000000001 -0.06666666666666665 0
0.7333333333333334 -0.06666666666666665 0
0.8666666666666667 -0.06666666666666665 0
1 -0.06666666666666665 0
-1 0.06666666666666665 0
-0.8666666666666667 0.06666666666666665 0
-0.7333333333333334 0.06666666666666665 0
-0.6 0.06666666666666665 0
-0.4666666666666667 0.06666666666666665 0
-0.33333333333333337 0.06666666666666665 0
-0.19999999999999996 0.06666666666666665 0
-0.06666666666666665 0.06666666666666665 0
0.06666666666666665 0.06666666666666665 0
0.19999999999999996 0.06666666666666665 0
0.33333333333333326 0.06666666666666665 0
0.46666666666666656 0.06666666666666665 0
0.6000000000000001 0.06666666666666665 0
0.7333333333333334 0.06666666666666665 0
0.8666666666666667 0.06666666666666665 0
1 0.06666666666666665 0
-1 0.19999999999999996 0
-0.8666666666666667 0.19999999999999996 0
-0.7333333333333334 0.19999999999999996 0
-0.6 0.19999999999999996 0
-0.4666666666666667 0.19999999999999996 0
-0.33333333333333337 0.19999999999999996 0
-0.19999999999999996 0.19999999999999996 0
-0.06666666666666665 0.19999999999999996 0
0.06666666666666665 0.19999999999999996 0
0.19999999999999996 0.19999999999999996 0
0.33333333333333326 0.19999999999999996 0
0.46666666666666656 0.19999999999999996 0
0.6000000000000001 0.19999999999999996 0
0.7333333333333334 0.19999999999999996 0
0.8666666666666667 0.19999999999999996 0
1 0.19999999999999996 0
-1 0.33333333333333326 0
-0.8666666666666667 0.33333333333333326 0
-0.7333333333333334 0.33333333333333326 0
-0.6 0.33333333333333326 0
-0.4666666666666667 0.33333333333333326 0
-0.33333333333333337 0.33333333333333326 0
-0.19999999999999996 0.33333333333333326 0
-0.06666666666666665 0.33333333333333326 0
0.06666666666666665 0.33333333333333326 0
0.19999999999999996 0.33333333333333326 0
0.33333333333333326 0.33333333333333326 0
0.46666666666666656 0.33333333333333326 0
0.6000000000000001 0.33333333333333326 0
0.7333333333333334 0.33333333333333326 0
0.8666666666666667 0.33333333333333326 0
1 0.33333333333333326 0
-1 0.46666666666666656 0
-0.8666666666666667 0.46666666666666656 0
-0.7333333333333334 0.46666666666666656 0
-0.6 0.46666666666666656 0
-0.4666666666666667 0.46666666666666656 0
-0.33333333333333337 0.46666666666666656 0
-0.19999999999999996 0.46666666666666656 0
-0.06666666666666665 0.46666666666666656 0
0.06666666666666665 0.46666666666666656 0
0.19999999999999996 0.46666666666666656 0
0.33333333333333326 0.46666666666666656 0
0.46666666666666656 0.46666666666666656 0
0.6000000000000001 0.46666666666666656 0
0.7333333333333334 0.46666666666666656 0
0.8666666666666667 0.46666666666666656 0
1 0.46666666666666656 0
-1 0.6000000000000001 0
-0.8666666666666667 0.6000000000000001 0
-0.7333333333333334 0.6000000000000001 0
-0.6 0.6000000000000001 0
-0.4666666666666667 0.6000000000000001 0
-0.33333333333333337 0.6000000000000001 0
-0.19999999999999996 0.6000000000000001 0
-0.06666666666666665 0.6000000000000001 0
0.06666666666666665 0.6000000000000001 0
0.19999999999999996 0.6000000000000001 0
0.33333333333333326 0.6000000000000001 0
0.46666666666666656 0.6000000000000001 0
0.6000000000000001 0.6000000000000001 0
0.7333333333333334 0.6000000000000001 0
0.8666666666666667 0.6000000000000001 0
1 0.6000000000000001 0
-1 0.7333333333333334 0
-0.8666666666666667 0.7333333333333334 0
-0.7333333333333334 0.7333333333333334 0
-0.6 0.7333333333333334 0
-0.4666666666666667 0.7333333333333334 0
-0.33333333333333337 0.7333333333333334 0
-0.19999999999999996 0.7333333333333334 0
-0.06666666666666665 0.7333333333333334 0
0.06666666666666665 0.7333333333333334 0
0.19999999999999996 0.7333333333333334 0
0.33333333333333326 0.7333333333333334 0
0.46666666666666656 0.7333333333333334 0
0.6000000000000001 0.7333333333333334 0
0.7333333333333334 0.7333333333333334 0
0.8666666666666667 0.7333333333333334 0
1 0.7333333333333334 0
-1 0.8666666666666667 0
-0.8666666666666667 0.8666666666666667 0
-0.7333333333333334 0.8666666666666667 0
-0.6 0.8666666666666667 0
-0.4666666666666667 0.8666666666666667 0
-0.33333333333333337 0.8666666666666667 0
-0.19999999999999996 0.8666666666666667 0
-0.06666666666666665 0.8666666666666667 0
0.06666666666666665 0.8666666666666667 0
0.19999999999999996 0.8666666666666667 0
0.33333333333333326 0.8666666666666667 0
0.46666666666666656 0.8666666666666667 0
0.6000000000000001 0.8666666666666667 0
0.7333333333333334 0.8666666666666667 0
0.8666666666666667 0.8666666666666667 0
1 0.8666666666666667 0
-1 1 0
-0.8666666666666667 1 0
-0.7333333333333334 1 0
-0.6 1 0
-0.4666666666666667 1 0
-0.33333333333333337 1 0
-0.19999999999999996 1 0
-0.06666666666666665 1 0
0.06666666666666665 1 0
0.19999999999999996 1 0
0.33333333333333326 1 0
0.46666666666666656 1 0
0.6000000000000001 1 0
0.7333333333333334 1 0
0.8666666666666667 1 0
1 1 0

CELLS 225 1125
4 0 1 17 16
4 1 2 18 17
4 2 3 19 18
4 3 4 20 19
4 4 5 21 20
4 5 6 22 21
4 6 7 23 22
4 7 8 24 23
4 8 9 25 24
4 9 10 26 25
4 10 11 27 26
4 11 12 28 27
4 12 13 29 28
4 13 14 30 29
4 14 15 31 30
4 16 17 33 32
4 17 18 34 33
4 18 19 35 34
4 19 20 36 35
4 20 21 37 36
4 21 22 38 37
4 22 23 39 38
4 23 24 40 39
4 24 25 41 40
4 25 26 42 41
4 26 27 43 42
4 27 28 44 43
4 28 29 45 44
4 29 30 46 45
4 30 31 47 46
4 32 33 49 48
4 33 34 50 49
4 34 35 51 50
4 35 36 52 51
4 36 37 53 52
4 37 38 54 53
4 38 39 55 54
4 39 40 56 55
4 40 41 57 56
4 41 42 58 57
4 42 43 59 58
4 43 44 60 59
4 44 45 61 60
4 45 46 62 61
4 46 47 63 62
4 48 49 65 64
4 49 50 66 65
4 50 51 67 66
4 51 52 68 67
4 52 53 69 68
4 53 54 70 69
4 54 55 71 70
4 55 56 72 71
4 56 57 73 72
4 57 58 74 73
4 58 59 75 74
4 59 60 76 75
4 60 61 77 76
4 61 62 78 77
4 62 63 79 78
4 64 65 81 80
4 65 66 82 81
4 66 67 83 82
4 67 68 84 83
4 68 69 85 84
4 69 70 86 85
4 70 71 87 86
4 71 72 88 87
4 72 73 89 88
4 73 74 90 89
4 74 75 91 90
4 75 76 92 91
4 76 77 93 92
4 77 78 94 93
4 78 79 95 94
4 80 81 97 96
4 81 82 98 97
4 82 83 99 98
4 83 84 100 99
4 84 85 101 100
4 85 86 102 101
4 86 87 103 102
4 87 88 104 103
4 88 89 105 104
4 89 90 106 105
4 90 91 107 106
4 91 92 108 107
4 92 93 109 108
4 93 94 110 109
4 94 95 111 110
4 96 97 113 112
4 97 98 114 113
4 98 99 115 114
4 99 100 116 115
4 100 101 117 116
4 101 102 118 117
4 102 103 119 118
4 103 104 120 119
4 104 105 121 120
4 105 106 122 121
4 106 107 123 122
4 107 108 124 123
4 108 109 125 124
4 109 110 126 125
4 110 111 127 126
4 112 113 129 128
4 113 114 130 129
4 114 115 131 130
4 115 116 132 131
4 116 117 133 132
4 117 118 134 133
4 118 119 135 134
4 119 120 136 135
4 120 121 137 136
4 121 122 138 137
4 122 123 139 138
4 123 124 140 139
4 124 125 141 140
4 125 126 142 141
4 126 127 143 142
4 128 129 145 144
4 129 130 146 145
4 130 131 147 146
4 131 132 148 147
4 132 133 149 148
4 133 134 150 149
4 134 135 151 150
4 135 136 152 151
4 136 137 153 152
4 137 138 154 153
4 138 139 155 154
4 139 140 156 155
4 140 141 157 156
4 141 142 158 157
4 142 143 159 158
4 144 145 161 160
4 145 146 162 161
4 146 147 163 162
4 147 148 164 163
4 148 149 165 164
4 149 150 166 165
4 150 151 167 166
4 151 152 168 167
4 152 153 169 168
4 153 154 170 169
4 154 155 171 170
4 155 156 172 171
4 156 157 173 172
4 157 158 174 173
4 158 159 175 174
4 160 161 177 176
4 161 162 178 177
4 162 163 179 178
4 163 164 180 179
4 164 165 181 180
4 165 166 182 181
4 166 167 183 182
4 167 168 184 183
4 168 169 185 184
4 169 170 186 185
4 170 171 187 186
4 171 172 188 187
4 172 173 189 188
4 173 174 190 189
4 174 175 191 190
4 176 177 193 192
4 177 178 194 193
4 178 179 195 194
4 179 180 196 195
4 180 181 197 196
4 181 182 198 197
4 182 183 199 198
4 183 184 200 199
4 184 185 201 200
4 185 186 202 201
4 186 187 203 202
4 187 188 204 203
4 188 189 205 204
4 189 190 206 205
4 190 191 207 206
4 192 193 209 208
4 193 194 210 209
4 194 195 211 210
4 195 196 212 211
4 196 197 213 212
4 197 198 214 213
4 198 199 215 214
4 199 200 216 215
4 200 201 217 216
4 201 202 218 217
4 202 203 219 218
4 203 204 220 219
4 204 205 221 220
4 205 206 222 221
4 206 207 223 222
4 208 209 225 224
4 209 210 226 225
4 210 211 227 226
4 211 212 228 227
4 212 213 229 228
4 213 214 230 229
4 214 215 231 230
4 215 216 232 231
4 216 217 233 232
4 217 218 234 233
4 218 219 235 234
4 219 220 236 235
4 220 221 237 236
4 221 222 238 237
4 222 223 239 238
4 224 225 241 240
4 225 226 242 241
4 226 227 243 242
4 227 228 244 243
4 228 229 245 244
4 229 230 246 245
4 230 231 247 246
4 231 232 248 247
4 232 233 249 248
4 233 234 250 249
4 234 235 251 250
4 235 236 252 251
4 236 237 253 252
4 237 238 254 253
4 238 239 255 254

CELL_TYPES 225
9
9
9
9
9
9
9
9
9
9
9
9
9
9
9
9
9
9
9
9
9
9
9
9
9
9
9
9
9
9
9
9
9
9
9
9
9
9
9
9
9
9
9
9
9
9
9
9
9
9
9
9
9
9
9
9
9
9
9
9
9
9
9
9
9
9
9
9
9
9
9
9
9
9
9
9
9
9
9
9
9
9
9
9
9
9
9
9
9
9
9
9
9
9
9
9
9
9
9
9
9
9
9
9
9
9
9
9
9
9
9
9
9
9
9
9
9
9
9
9
9
9
9
9
9
9
9
9
9
9
9
9
9
9
9
9
9
9
9
9
9
9
9
9
9
9
9
9
9
9
9
9
9
9
9
9
9
9
9
9
9
9
9
9
9
9
9
9
9
9
9
9
9
9
9
9
9
9
9
9
9
9
9
9
9
9
9
9
9
9
9
9
9
9
9
9
9
9
9
9
9
9
9
9
9
9
9
9
9
9
9
9
9
9
9
9
9
9
9
9
9
9
9
9
9


POINT_DATA 256
SCALARS inclusion_level_set double 1
LOOKUP_TABLE default
1.3666666666666667
1.2620499351813308
1.1621141466307539
1.067885635245546
0.9806248474865698
0.9018504251546631
0.8333333333333333
0.7770329614269007
0.7349449797506682
0.7088497300281036
0.7
0.7088497300281036
0.7349449797506682
0.7770329614269009
0.8333333333333333
0.9018504251546631
1.290248058916875
1.1802402207449678
1.0743685418725535
0.9736648783028532
0.8794537341969422
0.7934146311237815
0.7176225014982498
0.6545214042184235
0.6067647005823629
0.5768630958643937
0.5666666666666667
0.5768630958643937
0.6067647005823631
0.6545214042184238
0.71762250149825
0.7934146311237817
1.221694961401777
1.1063348739819323
0.9944325225965065
0.8869662543176571
0.7852547064066471
0.6910712498212337
0.6067647005823629
0.5353309390761112
0.48031332738130844
0.44535599249993
0.4333333333333334
0.44535599249993
0.48031332738130855
0.5353309390761114
0.6067647005823631
0.6910712498212339
1.1621141466307539
1.0416407864998738
0.9238373167123879
0.809554465139549
0.7
0.596908269804914
0.5027729719194864
0.4211102550927978
0.3565905201197403
0.3146362971528592
0.3
0.3146362971528592
0.3565905201197404
0.4211102550927979
0.5027729719194864
0.5969082698049142
1.112641340027806
0.987547194388531
0.8642832797715321
0.7434983894999019
0.6261629326299869
0.5137703743822468
0.4086763875156432
0.31463629715285907
0.23748384988656995
0.18534065928536791
0.16666666666666669
0.18534065928536791
0.23748384988657006
0.3146362971528593
0.40867638751564345
0.5137703743822468
1.0743685418725535
0.9454361128179603
0.8175369742826806
0.6910712498212337
0.5666666666666667
0.4453559924999299
0.3289320754704402
0.22068331172711025
0.12687494916218994
0.0590109871423003
0.03333333333333338
0.0590109871423003
0.12687494916219005
0.22068331172711048
0.3289320754704404
0.44535599249993
1.0482498944104455
0.9165525060596438
0.7852547064066471
0.6545214042184235
0.524621125123532
0.39602043392737
0.2696002496878353
0.14721359549995783
0.03333333333333327
-0.059629914969067443
-0.10000000000000003
-0.059629914969067443
0.03333333333333344
0.14721359549995805
0.2696002496878355
0.39602043392737
1.0349989596333857
0.9018504251546631
0.7687479694587598
0.63571125650788
0.5027729719194864
0.369991708074726
0.23748384988656984
0.10551750201988125
-0.02512629162548935
-0.15092880150001403
-0.23333333333333334
-0.15092880150001403
-0.025126291625489128
0.10551750201988147
0.23748384988657006
0.3699917080747261
1.0349989596333857
0.9018504251546631
0.7687479694587598
0.63571125650788
0.5027729719194864
0.369991708074726
0.23748384988656984
0.10551750201988125
-0.02512629162548935
-0.15092880150001403
-0.23333333333333334
-0.15092880150001403
-0.025126291625489128
0.10551750201988147
0.23748384988657006
0.3699917080747261
1.0482498944104455
0.9165525060596438
0.7852547064066471
0.6545214042184235
0.524621125123532
0.39602043392737
0.2696002496878353
0.14721359549995783
0.03333333333333327
-0.059629914969067443
-0.10000000000000003
-0.059629914969067443
0.03333333333333344
0.14721359549995805
0.2696002496878355
0.39602043392737
1.0743685418725535
0.9454361128179603
0.8175369742826806
0.6910712498212337
0.5666666666666667
0.4453559924999298
0.3289320754704402
0.22068331172711014
0.12687494916218983
0.059010987142300186
0.03333333333333327
0.059010987142300186
0.12687494916218994
0.22068331172711037
0.3289320754704403
0.4453559924999299
1.112641340027806
0.987547194388531
0.8642832797715319
0.7434983894999017
0.6261629326299869
0.5137703743822468
0.4086763875156431
0.31463629715285907
0.23748384988656984
0.1853406592853678
0.16666666666666657
0.1853406592853678
0.23748384988656995
0.3146362971528592
0.40867638751564334
0.5137703743822468
1.1621141466307539
1.0416407864998738
0.9238373167123879
0.8095544651395492
0.7
0.5969082698049142
0.5027729719194864
0.4211102550927979
0.3565905201197404
0.3146362971528593
0.3000000000000001
0.3146362971528593
0.3565905201197404
0.42111025509279804
0.5027729719194864
0.5969082698049142
1.221694961401777
1.1063348739819323
0.9944325225965065
0.8869662543176571
0.7852547064066471
0.6910712498212337
0.6067647005823629
0.5353309390761112
0.48031332738130844
0.44535599249993
0.4333333333333334
0.44535599249993
0.48031332738130855
0.5353309390761114
0.6067647005823631
0.6910712498212339
1.290248058916875
1.1802402207449678
1.0743685418725535
0.9736648783028532
0.8794537341969422
0.7934146311237815
0.7176225014982498
0.6545214042184235
0.6067647005823629
0.5768630958643937
0.5666666666666667
0.5768630958643937
0.6067647005823631
0.6545214042184238
0.71762250149825
0.7934146311237817
1.3666666666666667
1.2620499351813308
1.1621141466307539
1.067885635245546
0.9806248474865698
0.9018504251546631
0.8333333333333333
0.7770329614269007
0.7349449797506682
0.7088497300281036
0.7
0.7088497300281036
0.7349449797506682
0.7770329614269009
0.8333333333333333
0.9018504251546631

