# vtk DataFile Version 4.1
Header:
ASCII

DATASET UNSTRUCTURED_GRID
POINTS 1182 double
-0.9718233512793084 -0.9718233512793084 0
-0.8948433153873585 -0.9718233512793084 0
-0.9718233512793084 -0.8948433153873584 0
-0.8948433153873583 -0.8948433153873584 0
-0.8384900179459752 -0.9718233512793084 0
-0.761509982054025 -0.9718233512793084 0
-0.8384900179459751 -0.8948433153873584 0
-0.7615099820540251 -0.8948433153873584 0
-0.7051566846126418 -0.9718233512793084 0
-0.6281766487206917 -0.9718233512793084 0
-0.7051566846126418 -0.8948433153873584 0
-0.6281766487206917 -0.8948433153873584 0
-0.5718233512793084 -0.9718233512793084 0
-0.4948433153873583 -0.9718233512793084 0
-0.5718233512793084 -0.8948433153873584 0
-0.49484331538735826 -0.8948433153873584 0
-0.4384900179459751 -0.9718233512793084 0
-0.361509982054025 -0.9718233512793084 0
-0.4384900179459751 -0.8948433153873584 0
-0.361509982054025 -0.8948433153873584 0
-0.3051566846126417 -0.9718233512793084 0
-0.2281766487206916 -0.9718233512793084 0
-0.3051566846126418 -0.8948433153873584 0
-0.2281766487206916 -0.8948433153873584 0
-0.17182335127930834 -0.9718233512793084 0
-0.09484331538735827 -0.9718233512793084 0
-0.17182335127930837 -0.8948433153873584 0
-0.09484331538735827 -0.8948433153873584 0
-0.038490017945975036 -0.9718233512793084 0
0.03849001794597504 -0.9718233512793084 0
-0.03849001794597504 -0.8948433153873584 0
0.038490017945975036 -0.8948433153873584 0
0.09484331538735827 -0.9718233512793084 0
0.17182335127930834 -0.9718233512793084 0
0.09484331538735827 -0.8948433153873584 0
0.17182335127930834 -0.8948433153873584 0
0.22817664872069157 -0.9718233512793084 0
0.3051566846126417 -0.9718233512793084 0
0.2281766487206916 -0.8948433153873584 0
0.30515668461264167 -0.8948433153873584 0
0.36150998205402496 -0.9718233512793084 0
0.43849001794597503 -0.9718233512793084 0
0.3615099820540249 -0.8948433153873584 0
0.438490017945975 -0.8948433153873584 0
0.49484331538735826 -0.9718233512793084 0
0.5718233512793084 -0.9718233512793084 0
0.49484331538735826 -0.8948433153873584 0
0.5718233512793084 -0.8948433153873584 0
0.6281766487206917 -0.9718233512793084 0
0.7051566846126418 -0.9718233512793084 0
0.6281766487206917 -0.8948433153873584 0
0.7051566846126417 -0.8948433153873584 0
0.761509982054025 -0.9718233512793084 0
0.8384900179459751 -0.9718233512793084 0
0.761509982054025 -0.8948433153873584 0
0.8384900179459751 -0.8948433153873584 0
0.8948433153873585 -0.9718233512793084 0
0.9718233512793085 -0.9718233512793084 0
0.8948433153873584 -0.8948433153873584 0
0.9718233512793085 -0.8948433153873584 0
-0.9718233512793084 -0.8384900179459751 0
-0.8948433153873585 -0.8384900179459751 0
-0.9718233512793084 -0.761509982054025 0
-0.8948433153873583 -0.761509982054025 0
-0.8384900179459752 -0.8384900179459751 0
-0.761509982054025 -0.8384900179459751 0
-0.8384900179459751 -0.761509982054025 0
-0.7615099820540251 -0.761509982054025 0
-0.7051566846126418 -0.8384900179459751 0
-0.6281766487206917 -0.8384900179459751 0
-0.7051566846126418 -0.761509982054025 0
-0.6281766487206917 -0.761509982054025 0
-0.5718233512793084 -0.8384900179459751 0
-0.4948433153873583 -0.8384900179459751 0
-0.5718233512793084 -0.761509982054025 0
-0.49484331538735826 -0.761509982054025 0
-0.4384900179459751 -0.8384900179459751 0
-0.361509982054025 -0.8384900179459751 0
-0.4384900179459751 -0.761509982054025 0
-0.361509982054025 -0.761509982054025 0
-0.3051566846126417 -0.8384900179459751 0
-0.2281766487206916 -0.8384900179459751 0
-0.3051566846126418 -0.761509982054025 0
-0.2281766487206916 -0.761509982054025 0
-0.17182335127930834 -0.8384900179459751 0
-0.09484331538735827 -0.8384900179459751 0
-0.17182335127930837 -0.761509982054025 0
-0.09484331538735827 -0.761509982054025 0
-0.038490017945975036 -0.8384900179459751 0
0.03849001794597504 -0.8384900179459751 0
-0.03849001794597504 -0.761509982054025 0
0.038490017945975036 -0.761509982054025 0
0.09484331538735827 -0.8384900179459751 0
0.17182335127930834 -0.8384900179459751 0
0.09484331538735827 -0.761509982054025 0
0.17182335127930834 -0.761509982054025 0
0.22817664872069157 -0.8384900179459751 0
0.3051566846126417 -0.8384900179459751 0
0.2281766487206916 -0.761509982054025 0
0.30515668461264167 -0.761509982054025 0
0.36150998205402496 -0.8384900179459751 0
0.43849001794597503 -0.8384900179459751 0
0.3615099820540249 -0.761509982054025 0
0.438490017945975 -0.761509982054025 0
0.49484331538735826 -0.8384900179459751 0
0.5718233512793084 -0.8384900179459751 0
0.49484331538735826 -0.761509982054025 0
0.5718233512793084 -0.761509982054025 0
0.6281766487206917 -0.8384900179459751 0
0.7051566846126418 -0.8384900179459751 0
0.6281766487206917 -0.761509982054025 0
0.7051566846126417 -0.761509982054025 0
0.761509982054025 -0.8384900179459751 0
0.8384900179459751 -0.8384900179459751 0
0.761509982054025 -0.761509982054025 0
0.8384900179459751 -0.761509982054025 0
0.8948433153873585 -0.8384900179459751 0
0.9718233512793085 -0.8384900179459751 0
0.8948433153873584 -0.761509982054025 0
0.9718233512793085 -0.761509982054025 0
-0.9718233512793084 -0.7051566846126418 0
-0.8948433153873585 -0.7051566846126418 0
-0.9718233512793084 -0.6281766487206917 0
-0.8948433153873583 -0.6281766487206916 0
-0.8384900179459752 -0.7051566846126418 0
-0.761509982054025 -0.7051566846126418 0
-0.8384900179459751 -0.6281766487206917 0
-0.7615099820540251 -0.6281766487206916 0
-0.7051566846126418 -0.7051566846126418 0
-0.6281766487206917 -0.7051566846126418 0
-0.7051566846126418 -0.6281766487206917 0
-0.6281766487206917 -0.6281766487206916 0
-0.5718233512793084 -0.7051566846126418 0
-0.4948433153873583 -0.7051566846126418 0
-0.5718233512793084 -0.6281766487206917 0
-0.49484331538735826 -0.6281766487206916 0
-0.4384900179459751 -0.7051566846126418 0
-0.361509982054025 -0.7051566846126418 0
-0.4384900179459751 -0.6281766487206917 0
-0.361509982054025 -0.6281766487206916 0
-0.3051566846126417 -0.7051566846126418 0
-0.2281766487206916 -0.7051566846126418 0
-0.3051566846126418 -0.6281766487206917 0
-0.2281766487206916 -0.6281766487206916 0
-0.17182335127930834 -0.7051566846126418 0
-0.09484331538735827 -0.7051566846126418 0
-0.17182335127930837 -0.6281766487206917 0
-0.09484331538735827 -0.6281766487206916 0
-0.038490017945975036 -0.7051566846126418 0
0.03849001794597504 -0.7051566846126418 0
-0.03849001794597504 -0.6281766487206917 0
0.038490017945975036 -0.6281766487206916 0
0.09484331538735827 -0.7051566846126418 0
0.17182335127930834 -0.7051566846126418 0
0.09484331538735827 -0.6281766487206917 0
0.17182335127930834 -0.6281766487206916 0
0.22817664872069157 -0.7051566846126418 0
0.3051566846126417 -0.7051566846126418 0
0.2281766487206916 -0.6281766487206917 0
0.30515668461264167 -0.6281766487206916 0
0.36150998205402496 -0.7051566846126418 0
0.43849001794597503 -0.7051566846126418 0
0.3615099820540249 -0.6281766487206917 0
0.438490017945975 -0.6281766487206916 0
0.49484331538735826 -0.7051566846126418 0
0.5718233512793084 -0.7051566846126418 0
0.49484331538735826 -0.6281766487206917 0
0.5718233512793084 -0.6281766487206916 0
0.6281766487206917 -0.7051566846126418 0
0.7051566846126418 -0.7051566846126418 0
0.6281766487206917 -0.6281766487206917 0
0.7051566846126417 -0.6281766487206916 0
0.761509982054025 -0.7051566846126418 0
0.8384900179459751 -0.7051566846126418 0
0.761509982054025 -0.6281766487206917 0
0.8384900179459751 -0.6281766487206916 0
0.8948433153873585 -0.7051566846126418 0
0.9718233512793085 -0.7051566846126418 0
0.8948433153873584 -0.6281766487206917 0
0.9718233512793085 -0.6281766487206916 0
-0.9718233512793084 -0.5718233512793084 0
-0.8948433153873585 -0.5718233512793084 0
-0.9718233512793084 -0.4948433153873583 0
-0.8948433153873583 -0.4948433153873583 0
-0.8384900179459752 -0.5718233512793084 0
-0.761509982054025 -0.5718233512793084 0
-0.8384900179459751 -0.4948433153873583 0
-0.7615099820540251 -0.4948433153873583 0
-0.7051566846126418 -0.5718233512793084 0
-0.6281766487206917 -0.5718233512793084 0
-0.7051566846126418 -0.4948433153873583 0
-0.6281766487206917 -0.4948433153873583 0
-0.5718233512793084 -0.5718233512793084 0
-0.4948433153873583 -0.5718233512793084 0
-0.5718233512793084 -0.4948433153873583 0
-0.49484331538735826 -0.4948433153873583 0
-0.4384900179459751 -0.5718233512793084 0
-0.361509982054025 -0.5718233512793084 0
-0.4384900179459751 -0.4948433153873583 0
-0.361509982054025 -0.4948433153873583 0
-0.3051566846126417 -0.5718233512793084 0
-0.2281766487206916 -0.5718233512793084 0
-0.3051566846126418 -0.4948433153873583 0
-0.2281766487206916 -0.4948433153873583 0
-0.17182335127930834 -0.5718233512793084 0
-0.09484331538735827 -0.5718233512793084 0
-0.17182335127930837 -0.4948433153873583 0
-0.09484331538735827 -0.4948433153873583 0
-0.038490017945975036 -0.5718233512793084 0
0.03849001794597504 -0.5718233512793084 0
-0.03849001794597504 -0.4948433153873583 0
0.038490017945975036 -0.4948433153873583 0
0.09484331538735827 -0.5718233512793084 0
0.17182335127930834 -0.5718233512793084 0
0.09484331538735827 -0.4948433153873583 0
0.17182335127930834 -0.4948433153873583 0
0.22817664872069157 -0.5718233512793084 0
0.3051566846126417 -0.5718233512793084 0
0.2281766487206916 -0.4948433153873583 0
0.30515668461264167 -0.4948433153873583 0
0.36150998205402496 -0.5718233512793084 0
0.43849001794597503 -0.5718233512793084 0
0.3615099820540249 -0.4948433153873583 0
0.438490017945975 -0.4948433153873583 0
0.49484331538735826 -0.5718233512793084 0
0.5718233512793084 -0.5718233512793084 0
0.49484331538735826 -0.4948433153873583 0
0.5718233512793084 -0.4948433153873583 0
0.6281766487206917 -0.5718233512793084 0
0.7051566846126418 -0.5718233512793084 0
0.6281766487206917 -0.4948433153873583 0
0.7051566846126417 -0.4948433153873583 0
0.761509982054025 -0.5718233512793084 0
0.8384900179459751 -0.5718233512793084 0
0.761509982054025 -0.4948433153873583 0
0.8384900179459751 -0.4948433153873583 0
0.8948433153873585 -0.5718233512793084 0
0.9718233512793085 -0.5718233512793084 0
[...]
POINT_DATA 1182
SCALARS temperature double 1
LOOKUP_TABLE default
97.05020428763058
88.99121252948845
97.04225518705627
88.96154608227071
83.11765828037478
75.12980140892633
83.07399468917043
75.06961425583313
69.32813226272295
61.46553425803906
69.2591959037837
61.38921818609137
55.764606021751405
48.051978434593394
55.68663016413987
47.97684767122702
42.45797902002211
34.88751598906082
42.38772221801725
34.82773000288459
29.385668575945658
21.924804938784924
29.33461863136746
21.887151487880935
16.487204527102485
9.092267568289346
16.459159962436757
9.077078475356508
3.686689070613294
-3.6866890705263837
3.680636324553842
-3.6806363244650573
-9.092267568203757
-16.48720452702051
-9.077078475269108
-16.459159962353148
-21.92480493870669
-29.385668575874032
-21.88715148780125
-29.33461863129472
-34.887515988994735
-42.45797901996453
-34.827730002817674
-42.38772221795927
-48.05197843454225
-55.76460602170933
-47.976847671175776
-55.686630164098055
-61.465534258003395
-69.32813226269575
-61.389218186056155
-69.2591959037571
-75.12980140890491
-83.11765828036076
-75.06961425581233
-83.07399468915692
-88.99121252947951
-97.05020428762819
-88.96154608226215
-97.042255187054
97.02988593601148
88.91538340891994
97.0040416142798
88.81893108713014
83.00598222911064
74.97570049065575
82.86383232388391
74.77931046575428
69.1516157475122
61.270202060112155
68.92663765363147
61.021360028964594
55.56537506594055
47.86091155687331
55.312075834594744
47.619298965393234
42.28019779187257
34.737867752458754
42.056692398595445
34.552145504789095
29.25901369114207
21.83283606778362
29.103507097721305
21.722097031347307
16.41945276560457
9.055992166564874
16.33901525109862
9.013572392534883
3.6723971951562753
-3.6723971950646352
3.65594022109144
-3.6559402209938767
-9.055992166474713
-16.41945276551845
-9.013572392438988
-16.339015251007282
-21.832836067701713
-29.259013691067626
-21.72209703126076
-29.10350709764329
-34.737867752390564
-42.28019779181402
-34.55214550471827
-42.05669239853572
-47.86091155682197
-55.565375065899225
-47.61929896534172
-55.312075834554534
-61.27020206007775
-69.15161574748664
-61.02136002893195
-68.92663765360822
-74.97570049063604
-83.00598222909802
-74.7793104657369
-82.86383232387321
-88.91538340891202
-97.02988593600935
-88.81893108712362
-97.00404161427805
96.9764285215266
88.71587762202107
96.92683247090241
88.53078264123687
82.71128772987863
74.56699396543648
82.43667805386298
74.18332452418453
68.68264506722795
60.750598672302445
68.24102301838408
60.259706920322735
55.03723932309056
47.36009769407053
54.53967124123194
46.89355924291053
41.820585293324726
34.363497594349354
41.399034078974225
34.03382416595596
28.95111534376342
21.621299744154005
28.690279922716698
21.456655470713123
16.269906211500995
8.979442788606875
16.16153431856395
8.92861875066335
3.6436275096123825
-3.643627509508755
3.626445530337497
-3.6264455302232235
-8.97944278850505
-16.26990621140409
-8.928618750551054
-16.161534318457054
-21.621299744062448
-28.951115343681547
-21.456655470612503
-28.69027992262784
-34.3634975942757
-41.82058529326383
-34.0338241658772
-41.39903407891129
-47.36009769401904
-55.037239323051985
-46.89355924285927
-54.53967124119676
-60.75059867227224
-68.6826450672077
-60.25970692029743
-68.24102301836973
-74.56699396542211
-82.71128772987038
-74.18332452417602
-82.43667805385951
-88.71587762201632
-96.97642852152532
-88.53078264123559
-96.92683247090206
96.87898907780918
88.35222866740642
96.79787454769615
88.04950511979258
82.16877289775019
73.80201797909709
81.71145207565596
73.14393856591164
67.79598236208072
59.753942822976796
67.02173072646998
58.863061364363205
54.02490518245998
46.41492280919745
53.116106237741604
45.573802205099724
40.97660807430582
33.72883828429398
40.2440699814639
33.22527478839565
28.470227874022804
21.351206845963183
28.129869917728183
21.227760118998972
16.112931048333767
8.920716453211428
16.088516337587933
8.949951013019778
3.6304842643726905
-3.6304842642487145
3.658700270229983
-3.658700270090143
-8.920716453089474
-16.11293104821733
-8.949951012881908
-16.08851633745544
-21.351206845853397
-28.470227873925644
-21.227760118873185
-28.129869917615338
-33.72883828420896
-40.97660807424135
-33.22527478829866
-40.24406998139729
-46.41492280914751
-54.02490518242924
-45.573802205053205
-53.11610623771959
-59.75394282295758
-67.79598236207384
-58.863061364355715
-67.02173072647764
-73.80201797909592
-82.16877289775223
-73.14393856592464
-81.71145207566839
-88.352228667409
-96.87898907780988
-88.04950511980223
-96.79787454769874
96.72655624617053
87.7833415949894
96.61282555300599
87.35889286971931
81.30031511156434
72.53157202321366
80.6343888588907
71.51663492889294
66.27797906574338
57.96158846443035
65.02026337603532
56.38960015878094
52.16471451893065
44.64375097606624
50.474262949957236
42.9439243688026
39.443487754975926
32.75706796508981
37.98879452941608
31.98146663126616
27.900589303878498
21.31886264546121
27.614540973945193
21.691206103418132
16.286599962099263
9.11992929253883
16.852189199157454
9.555084028559675
3.750897917420108
-3.750897917275198
3.974570568024549
-3.9745705678816483
-9.119929292390466
-16.28659996194147
-9.55508402839856
-16.852189198946576
-21.3188626453096
-27.900589303753232
-21.691206103211975
-27.614540973801695
-32.75706796498545
-39.44348775490233
-31.981466631153634
-37.98879452932554
-44.64375097601857
-52.164714518923056
-42.94392436874837
-50.474262949980286
-57.9615884644426
-66.27797906576974
-56.38960015883537
-65.02026337609821
-72.53157202324265
-81.30031511158641
-71.51663492895145
-80.6343888589287
-87.7833415950048
-96.72655624617465
-87.35889286974336
-96.61282555301243
96.52581206331841
87.03415410526136
96.40181748171258
86.57140002684525
80.10828518657931
70.67811737223475
79.3368694764496
69.40218189872682
63.92014399306318
54.88718517931303
62.172277634100055
52.35449942700361
43.12382990412371
40.06468100945211
48.34025028500607
41.212779459825505
47.81001059088015
39.634101325630716
47.67554682222652
45.07372928457036
50.1701718855803
28.477433270110012
28.477508188595362
28.477432608208645
35.7658389545523
32.1738546698965
37.18897156099481
28.477213590551514
28.477330395783838
28.47721036931736
31.16672756827871
36.03919371442647
30.910505361541173
28.477367790911654
28.477248919407394
28.477369055853345
28.477130690269114
28.477013981707135
28.4771347703166
21.87820632418661
26.53244975423344
22.856983578625993
28.476972106901908
28.47708898876868
28.476967964314873
27.929675579650752
23.15007222874462
27.9444471968582
28.476901037227677
28.47682128041989
28.476906159869344
19.119367543265746
11.52772416513334
18.000343255966158
8.59059557433391
12.480888804643133
9.797164157268698
14.695460867355235
10.620911985700651
18.365608038513866
4.331197897827939
-4.331197897657814
5.081849231613981
-5.081849231367474
-14.695460867244831
-18.365608038434367
-10.620911985533034
-18.000343255759876
-11.52772416495894
-19.119367543146588
-9.797164157038464
-12.480888804479385
-8.590595574152523
-28.476906160117075
-28.476821280667618
-28.476901037475404
-22.856983578554292
-26.532449754161327
-21.878206324008126
-28.47713477056434
-28.47701398195487
-28.477130690516855
-27.94444719672888
-23.150072228551707
-27.929675579566393
-28.476967964562604
-28.477088989016423
-28.47697210714965
-28.477210369565107
-28.477330396031576
-28.477213590799252
-37.18897156093536
-32.17385466986492
-35.76583895456437
-28.477369056101086
-28.477248919655135
-28.477367791159384
-30.910505361479416
-36.03919371433818
-31.16672756817555
-43.12382990433246
-48.34025028510609
-40.064681009542554
-28.477432608456375
-28.47750818884309
-28.47743327035775
-39.63410132565846
-47.81001059091781
-41.21277945978468
-50.17017188572897
-45.07372928482738
-47.675546822510945
-54.88718517942972
-63.92014399315758
-52.35449942724816
-62.17227763424393
-70.67811737231068
-80.10828518662704
-69.40218189882084
-79.33686947650807
-87.0341541052909
-96.52581206332631
-86.5714000268811
-96.40181748172219
96.32549328504291
86.28655424702708
96.24096628350024
85.97109518265843
78.84989662446797
68.5715091991579
78.29087776107711
67.57800465298314
48.55377925438784
47.61421335535982
57.04394645382059
50.15575184568551
59.087205299066156
48.685474243642005
60.31207303961047
51.088698940915634
61.626285597547295
28.477651524454423
28.47767425881903
28.477651277332527
28.477603822537105
28.477484439637344
28.477603964868422
28.47743202653427
28.47750809718841
28.47743094341252
28.477547518689796
28.47758985363324
28.477470474340308
44.38694914600058
43.383162465650905
46.229741137331615
28.477356076434294
28.4772181445038
28.477354285031435
28.47721522493635
28.47711612602541
28.476975338289634
28.477112159347353
28.476969639016787
28.47670345402501
28.476829282823925
28.476699296203755
28.476891299955668
28.476816400110234
28.47689732224925
10.659237803902503
13.654640132460882
12.038890160869173
28.4767727372188
28.47684710570971
28.47672198555972
7.461461358988507
-3.730730679445505
6.695750520301015
-28.476651501104552
-28.476620872889995
-28.476647193906075
-5.22200160859636
-7.148528102969342
4.715111462368376
6.174961287423207
-1.8356252890738665
8.101487781890867
28.476647193658344
28.476620872642272
28.476651500856825
-6.44051357383923
3.2202567870941623
-7.206224412652312
-28.476699296451486
-28.47682928307166
-28.476703454272744
-28.476897322496985
-28.476816400357965
-28.476891300203402
-28.476772737466526
-28.47672198580745
-28.476847105957443
-12.03889016077742
-13.654640132327339
-10.659237803694683
-28.47697533853737
-28.47711612627315
-28.476969639264517
-28.47711215959509
-28.47721814475154
-28.477356076682028
-28.477215225184082
-28.477354285279162
-46.22974113764991
-43.38316246594988
-44.3869491462848
-28.477430943660245
-28.477508097436132
-28.477432026782
-28.47760396511614
-28.47748443988506
-28.47760382278483
-28.47754751893752
-28.47747047458802
-28.477589853880968
-61.6262855976915
-51.088698941124846
-60.31207303973972
-48.55377925456251
-57.04394645395759
-47.61421335556909
-28.47765127758025
-28.47767425906675
-28.477651524702136
-48.68547424389628
-59.08720529925041
-50.15575184597508
-68.5715091992576
-78.84989662453053
-67.57800465308026
-78.29087776114014
-86.28655424706571
-96.32549328505326
-85.97109518269829
-96.24096628351093
96.21002725363003
85.85562915124594
96.21002725363041
85.85562915124734
78.08626265588184
67.21435675030787
78.08626265588316
67.21435675030799
28.477681598349086
28.4776587958062
28.47768159834908
48.90180610266647
57.50170024185492
48.901806102667194
60.36833162158409
51.76843748239564
60.36833162158419
28.477651194958565
28.477673997501448
28.477651194958554
28.47759310561973
28.47745516849654
28.47759310561972
28.477455168496537
28.47735362933248
28.477214156300498
28.477353629332477
28.4772141563005
28.477110707442417
28.47696755293814
28.47711070744242
28.47696755293814
28.47686006375789
28.47670955236045
28.476860063757886
28.47670955236045
-28.476645758173248
-28.476619647853525
-28.47664575817325
5.458780493266555
-2.7293902468279034
5.458780493342845
-5.458780493619781
-5.4587804935686
2.729390246525858
28.47661094416588
28.47663705448561
28.476610944165877
-28.476610944413615
-28.47661094441361
-28.476637054733345
28.476645757925514
28.476619647605787
28.476645757925514
-28.476709552608185
-28.476860064005617
-28.476709552608185
-28.47686006400561
-28.476967553185865
-28.477110707690148
-28.47696755318586
-28.477110707690144
-28.477214156548225
-28.4773536295802
-28.47721415654822
-28.477353629580193
-28.477455168744257
-28.47759310586744
-28.477455168744253
-28.477593105867445
-28.477681598596803
-28.477658796053912
-28.477681598596796
-28.477651195206285
-28.477673997749175
-28.47765119520629
-60.36833162169756
-51.76843748254286
-60.36833162168839
-48.90180610282827
-57.501700241982974
-48.90180610282973
-67.21435675040047
-78.08626265594413
-67.21435675039078
-78.08626265594293
-85.85562915128631
-96.21002725364086
-85.85562915128783
-96.21002725364127
96.24096628350101
85.97109518266127
96.32549328504396
86.28655424703108
78.29087776108085
67.57800465298722
78.84989662447563
68.5715091991727
61.62628559758399
51.088698940976315
60.31207303962227
48.68547424374162
59.087205299136
50.155751845830046
28.477651277332523
28.477674258819018
28.47765152445441
48.55377925439937
57.04394645382621
47.61421335540552
28.47743094341252
28.477508097188412
28.477432026534274
28.47760396486842
28.477484439637333
28.4776038225371
28.477547518689796
28.477470474340297
28.47758985363324
46.22974113749029
43.38316246577705
44.38694914611368
28.47735428503143
28.47721522493636
28.4773560764343
28.477218144503812
28.47711215934736
28.47696963901679
28.477116126025425
28.476975338289648
28.476699296203755
28.476829282823925
28.476703454025014
12.038890160637601
13.654640132242596
10.659237803641672
28.47689732224927
28.476816400110245
28.476891299955675
28.47677273721881
28.47672198555972
28.476847105709716
6.174961287252203
8.101487781675477
-1.835625289216409
-28.476647193906082
-28.476620872890003
-28.476651501104552
28.476651500856825
28.476620872642272
28.476647193658344
-7.461461359242889
3.730730679239583
-6.6957505205563
-5.222001608754359
4.715111462137537
-7.148528103213817
6.440513573754164
-3.2202567873071155
7.206224412488721
-28.476891300203395
-28.476816400357965
-28.476897322496985
-28.476703454272744
-28.47682928307165
-28.476699296451493
-28.476772737466526
-28.476847105957432
-28.476721985807448
-10.659237804197506
-13.654640132746248
-12.038890161146352
-28.476969639264507
-28.47711215959508
-28.47697533853737
-28.477116126273142
-28.477215225184075
-28.477354285279148
-28.47721814475153
-28.477356076682018
-28.477603822784822
-28.477484439885057
-28.47760396511614
-28.477547518937524
-28.47758985388095
-28.477470474588017
-28.477432026781994
-28.477508097436132
-28.477430943660238
-44.386949146214484
-43.38316246587649
-46.229741137550384
-50.15575184588716
-59.08720529922328
-48.68547424383661
-60.31207303972508
-51.08869894108937
-61.62628559768264
-28.477651524702132
-28.47767425906675
-28.477651277580247
-48.55377925455474
-47.614213355542816
-57.04394645394307
-67.57800465307042
-78.29087776114137
-68.5715091992668
-78.84989662454075
-85.97109518270246
-96.24096628351204
-86.28655424707406
-96.32549328505549
96.40181748171364
86.57140002684912
96.52581206331908
87.03415410526385
79.33686947645799
69.40218189874463
80.1082851865857
70.67811737225004
62.17227763414746
52.35449942712249
63.920143993084224
54.88718517934091
28.477432608208648
28.47750818859537
28.477433270110023
50.170171885630566
45.07372928468035
47.6755468223695
39.634101325624144
47.81001059087902
41.212779459815394
43.12382990419404
48.34025028503178
40.06468100945986
37.18897156095489
32.173854669797834
35.76583895451763
28.477210369317376
28.477330395783845
28.477213590551525
30.910505361405782
36.03919371435522
31.16672756811883
28.47736905585336
28.477248919407415
28.477367790911664
28.477134770316614
28.477013981707145
28.47713069026913
22.856983578494766
26.53244975409013
21.87820632401993
28.47696796431489
28.477088988768703
28.476972106901922
27.944447196670957
23.15007222856392
27.929675579491036
28.47690615986936
28.4768212804199
28.47690103722768
14.695460867151562
18.365608038350135
10.620911985451498
9.797164156998123
12.480888804409128
8.590595574063387
18.000343255777285
11.527724164891687
19.119367543102065
5.081849231279538
-5.081849231844024
4.331197897526572
-4.331197898023438
-28.476901037475404
-28.476821280667618
-28.476906160117068
-8.59059557456996
-12.4808888049212
-9.797164157553414
-19.119367543549945
-11.5277241653756
-18.00034325626431
-14.69546086762472
-10.62091198594167
-18.365608038785567
-21.878206324513535
-26.532449754585326
-22.85698357892803
-28.477130690516848
-28.477013981954862
-28.477134770564323
-27.929675580027045
-23.150072229094597
-27.944447197252444
-28.476972107149642
-28.477088989016416
-28.476967964562604
-28.477213590799238
-28.47733039603156
-28.477210369565093
-35.765838954940286
-32.17385467028852
-37.18897156143655
-28.477367791159374
-28.47724891965512
-28.47736905610107
-31.166727568697848
-36.039193714876006
-30.910505361939446
-28.47743327035773
-28.477508188843085
-28.477432608456365
-43.12382990438465
-40.06468100978303
-48.34025028529467
-47.67554682245567
-45.0737292848109
-50.17017188583569
-41.21277946025187
-47.810010591204524
-39.63410132600802
-52.354499427211316
-62.172277634254534
-54.887185179541426
-63.920143993229644
-69.40218189884652
-79.33686947652745
-70.67811737236232
-80.10828518666248
-86.57140002689457
-96.40181748172581
-87.03415410531417
-96.52581206333255
96.61282555300612
87.35889286971978
96.72655624616957
87.78334159498583
80.63438885889325
71.51663492890077
81.30031511155835
72.53157202320365
65.02026337603932
56.38960015876921
66.27797906572724
57.961588464401466
50.4742629499376
42.943924368777054
52.16471451888881
44.643750976001755
37.98879452935471
31.981466631112816
39.44348775488618
32.75706796495368
27.61454097375834
21.6912061032317
27.90058930371559
21.31886264527155
16.85218919895306
9.555084028305785
16.28659996188689
9.119929292291129
3.9745705677387426
-3.97457056820516
3.7508979171437344
-3.750897917594585
-9.555084028778289
-16.852189199442194
-9.119929292745342
-16.286599962350287
-21.69120610374442
-27.614540974318867
-21.318862645740566
-27.900589304190746
-31.981466631667246
-37.98879452984468
-32.757067965414805
-39.44348775530284
-42.94392436920205
-50.474262950249575
-44.64375097637427
-52.164714519185175
-56.38960015901138
-65.02026337620379
-57.96158846464574
-66.27797906590536
-71.51663492902235
-80.63438885897538
-72.53157202334029
-81.30031511164778
-87.35889286977319
-96.61282555302043
-87.78334159504273
-96.72655624618483
96.79787454769438
88.04950511978589
96.87898907780618
88.35222866739531
81.71145207564444
73.14393856589186
82.16877289773217
73.80201797906848
67.02173072644256
58.86306136432312
67.7959823620426
59.75394282292331
53.116106237686935
45.57380220501788
54.02490518239249
46.414922809107075
40.24406998136152
33.22527478826438
40.976608074197316
33.728838284158776
28.129869917573657
21.22776011880982
28.470227873867223
21.351206845778613
16.088516337375243
8.949951012777428
16.112931048128203
8.920716452977501
3.6587002699618973
-3.658700270398875
3.6304842641178143
-3.630484264532464
-8.949951013215843
-16.08851633781759
-8.920716453391057
-16.112931048538766
-21.227760119249727
-28.12986991800297
-21.35120684618272
-28.470227874256672
-33.22527478867669
-40.24406998173798
-33.72883828453104
-40.97660807453725
-45.5738022053598
-53.11610623797036
-46.414922809417924
-54.024905182656155
-58.86306136456355
-67.02173072662401
-59.75394282315108
-67.79598236221949
-73.14393856603368
-81.71145207573693
-73.80201797920941
-82.16877289782572
-88.04950511984461
-96.79787454771011
-88.35222866745539
-96.8789890778223
96.92683247089874
88.53078264122318
96.97642852152225
88.71587762200488
82.43667805384125
74.18332452415076
82.71128772985315
74.56699396539751
68.24102301833992
60.25970692026213
68.68264506717796
60.75059867223585
54.53967124115767
46.893559242815314
55.037239323010574
47.36009769397058
41.3990340788622
34.03382416581891
41.82058529320919
34.36349759421122
28.690279922560997
21.456655470531445
28.951115343608446
21.62129974397565
16.161534318363103
8.928618750436094
16.269906211305898
8.979442788389422
3.626445530092207
-3.6264455304913805
3.6436275093800727
-3.6436275097592947
-8.928618750833051
-16.161534318754
-8.979442788765887
-16.269906211674833
-21.456655470914118
-28.690279922927267
-21.621299744335566
-28.951115343951237
-34.03382416616812
-41.39903407918117
-34.36349759453748
-41.82058529350741
-46.89355924310806
-54.539671241408946
-47.36009769424495
-55.03723932324779
-60.259706920481264
-68.24102301851264
-60.750598672443985
-68.68264506734383
-74.18332452428972
-82.43667805393437
-74.56699396553198
-82.7112877299441
-88.5307826412834
-96.92683247091487