# vtk DataFile Version 4.1
Header:
ASCII

DATASET UNSTRUCTURED_GRID
POINTS 1182 double
-1 -1 0
-0.8666666666666667 -1 0
-0.8666666666666667 -0.8666666666666667 0
-1 -0.8666666666666667 0
-0.8666666666666667 -1 0
-0.7333333333333334 -1 0
-0.7333333333333334 -0.8666666666666667 0
-0.8666666666666667 -0.8666666666666667 0
-0.7333333333333334 -1 0
-0.6 -1 0
-0.6 -0.8666666666666667 0
-0.7333333333333334 -0.8666666666666667 0
-0.6 -1 0
-0.4666666666666667 -1 0
-0.4666666666666667 -0.8666666666666667 0
-0.6 -0.8666666666666667 0
-0.4666666666666667 -1 0
-0.33333333333333337 -1 0
-0.33333333333333337 -0.8666666666666667 0
-0.4666666666666667 -0.8666666666666667 0
-0.33333333333333337 -1 0
-0.19999999999999996 -1 0
-0.19999999999999996 -0.8666666666666667 0
-0.33333333333333337 -0.8666666666666667 0
-0.19999999999999996 -1 0
-0.06666666666666665 -1 0
-0.06666666666666665 -0.8666666666666667 0
-0.19999999999999996 -0.8666666666666667 0
-0.06666666666666665 -1 0
0.06666666666666665 -1 0
0.06666666666666665 -0.8666666666666667 0
-0.06666666666666665 -0.8666666666666667 0
0.06666666666666665 -1 0
0.19999999999999996 -1 0
0.19999999999999996 -0.8666666666666667 0
0.06666666666666665 -0.8666666666666667 0
0.19999999999999996 -1 0
0.33333333333333326 -1 0
0.33333333333333326 -0.8666666666666667 0
0.19999999999999996 -0.8666666666666667 0
0.33333333333333326 -1 0
0.46666666666666656 -1 0
0.46666666666666656 -0.8666666666666667 0
0.33333333333333326 -0.8666666666666667 0
0.46666666666666656 -1 0
0.6000000000000001 -1 0
0.6000000000000001 -0.8666666666666667 0
0.46666666666666656 -0.8666666666666667 0
0.6000000000000001 -1 0
0.7333333333333334 -1 0
0.7333333333333334 -0.8666666666666667 0
0.6000000000000001 -0.8666666666666667 0
0.7333333333333334 -1 0
0.8666666666666667 -1 0
0.8666666666666667 -0.8666666666666667 0
0.7333333333333334 -0.8666666666666667 0
0.8666666666666667 -1 0
1 -1 0
1 -0.8666666666666667 0
0.8666666666666667 -0.8666666666666667 0
-1 -0.8666666666666667 0
-0.8666666666666667 -0.8666666666666667 0
-0.8666666666666667 -0.7333333333333334 0
-1 -0.7333333333333334 0
-0.8666666666666667 -0.8666666666666667 0
-0.7333333333333334 -0.8666666666666667 0
-0.7333333333333334 -0.7333333333333334 0
-0.8666666666666667 -0.7333333333333334 0
-0.7333333333333334 -0.8666666666666667 0
-0.6 -0.8666666666666667 0
-0.6 -0.7333333333333334 0
-0.7333333333333334 -0.7333333333333334 0
-0.6 -0.8666666666666667 0
-0.4666666666666667 -0.8666666666666667 0
-0.4666666666666667 -0.7333333333333334 0
-0.6 -0.7333333333333334 0
-0.4666666666666667 -0.8666666666666667 0
-0.33333333333333337 -0.8666666666666667 0
-0.33333333333333337 -0.7333333333333334 0
-0.4666666666666667 -0.7333333333333334 0
-0.33333333333333337 -0.8666666666666667 0
-0.19999999999999996 -0.8666666666666667 0
-0.19999999999999996 -0.7333333333333334 0
-0.33333333333333337 -0.7333333333333334 0
-0.19999999999999996 -0.8666666666666667 0
-0.06666666666666665 -0.8666666666666667 0
-0.06666666666666665 -0.7333333333333334 0
-0.19999999999999996 -0.7333333333333334 0
-0.06666666666666665 -0.8666666666666667 0
0.06666666666666665 -0.8666666666666667 0
0.06666666666666665 -0.7333333333333334 0
-0.06666666666666665 -0.7333333333333334 0
0.06666666666666665 -0.8666666666666667 0
0.19999999999999996 -0.8666666666666667 0
0.19999999999999996 -0.7333333333333334 0
0.06666666666666665 -0.7333333333333334 0
0.19999999999999996 -0.8666666666666667 0
0.33333333333333326 -0.8666666666666667 0
0.33333333333333326 -0.7333333333333334 0
0.19999999999999996 -0.7333333333333334 0
0.33333333333333326 -0.8666666666666667 0
0.46666666666666656 -0.8666666666666667 0
0.46666666666666656 -0.7333333333333334 0
0.33333333333333326 -0.7333333333333334 0
0.46666666666666656 -0.8666666666666667 0
0.6000000000000001 -0.8666666666666667 0
0.6000000000000001 -0.7333333333333334 0
0.46666666666666656 -0.7333333333333334 0
0.6000000000000001 -0.8666666666666667 0
0.7333333333333334 -0.8666666666666667 0
0.7333333333333334 -0.7333333333333334 0
0.6000000000000001 -0.7333333333333334 0
0.7333333333333334 -0.8666666666666667 0
0.8666666666666667 -0.8666666666666667 0
0.8666666666666667 -0.7333333333333334 0
0.7333333333333334 -0.7333333333333334 0
0.8666666666666667 -0.8666666666666667 0
1 -0.8666666666666667 0
1 -0.7333333333333334 0
0.8666666666666667 -0.7333333333333334 0
-1 -0.7333333333333334 0
-0.8666666666666667 -0.7333333333333334 0
-0.8666666666666667 -0.6 0
-1 -0.6 0
-0.8666666666666667 -0.7333333333333334 0
-0.7333333333333334 -0.7333333333333334 0
-0.7333333333333334 -0.6 0
-0.8666666666666667 -0.6 0
-0.7333333333333334 -0.7333333333333334 0
-0.6 -0.7333333333333334 0
-0.6 -0.6 0
-0.7333333333333334 -0.6 0
-0.6 -0.7333333333333334 0
-0.4666666666666667 -0.7333333333333334 0
-0.4666666666666667 -0.6 0
-0.6 -0.6 0
-0.4666666666666667 -0.7333333333333334 0
-0.33333333333333337 -0.7333333333333334 0
-0.33333333333333337 -0.6 0
-0.4666666666666667 -0.6 0
-0.33333333333333337 -0.7333333333333334 0
-0.19999999999999996 -0.7333333333333334 0
-0.19999999999999996 -0.6 0
-0.33333333333333337 -0.6 0
-0.19999999999999996 -0.7333333333333334 0
-0.06666666666666665 -0.7333333333333334 0
-0.06666666666666665 -0.6 0
-0.19999999999999996 -0.6 0
-0.06666666666666665 -0.7333333333333334 0
0.06666666666666665 -0.7333333333333334 0
0.06666666666666665 -0.6 0
-0.06666666666666665 -0.6 0
0.06666666666666665 -0.7333333333333334 0
0.19999999999999996 -0.7333333333333334 0
0.19999999999999996 -0.6 0
0.06666666666666665 -0.6 0
0.19999999999999996 -0.7333333333333334 0
0.33333333333333326 -0.7333333333333334 0
0.33333333333333326 -0.6 0
0.19999999999999996 -0.6 0
0.33333333333333326 -0.7333333333333334 0
0.46666666666666656 -0.7333333333333334 0
0.46666666666666656 -0.6 0
0.33333333333333326 -0.6 0
0.46666666666666656 -0.7333333333333334 0
0.6000000000000001 -0.7333333333333334 0
0.6000000000000001 -0.6 0
0.46666666666666656 -0.6 0
0.6000000000000001 -0.7333333333333334 0
0.7333333333333334 -0.7333333333333334 0
0.7333333333333334 -0.6 0
0.6000000000000001 -0.6 0
0.7333333333333334 -0.7333333333333334 0
0.8666666666666667 -0.7333333333333334 0
0.8666666666666667 -0.6 0
0.7333333333333334 -0.6 0
0.8666666666666667 -0.7333333333333334 0
1 -0.7333333333333334 0
1 -0.6 0
0.8666666666666667 -0.6 0
-1 -0.6 0
-0.8666666666666667 -0.6 0
-0.8666666666666667 -0.4666666666666667 0
-1 -0.4666666666666667 0
-0.8666666666666667 -0.6 0
-0.7333333333333334 -0.6 0
-0.7333333333333334 -0.4666666666666667 0
-0.8666666666666667 -0.4666666666666667 0
-0.7333333333333334 -0.6 0
-0.6 -0.6 0
-0.6 -0.4666666666666667 0
-0.7333333333333334 -0.4666666666666667 0
-0.6 -0.6 0
-0.4666666666666667 -0.6 0
-0.4666666666666667 -0.4666666666666667 0
-0.6 -0.4666666666666667 0
-0.4666666666666667 -0.6 0
-0.33333333333333337 -0.6 0
-0.33333333333333337 -0.4666666666666667 0
-0.4666666666666667 -0.4666666666666667 0
-0.33333333333333337 -0.6 0
-0.19999999999999996 -0.6 0
-0.19999999999999996 -0.4666666666666667 0
-0.33333333333333337 -0.4666666666666667 0
-0.19999999999999996 -0.6 0
-0.06666666666666665 -0.6 0
-0.06666666666666665 -0.4666666666666667 0
-0.19999999999999996 -0.4666666666666667 0
-0.06666666666666665 -0.6 0
0.06666666666666665 -0.6 0
0.06666666666666665 -0.4666666666666667 0
-0.06666666666666665 -0.4666666666666667 0
0.06666666666666665 -0.6 0
0.19999999999999996 -0.6 0
0.19999999999999996 -0.4666666666666667 0
0.06666666666666665 -0.4666666666666667 0
0.19999999999999996 -0.6 0
0.33333333333333326 -0.6 0
0.33333333333333326 -0.4666666666666667 0
0.19999999999999996 -0.4666666666666667 0
0.33333333333333326 -0.6 0
0.46666666666666656 -0.6 0
0.46666666666666656 -0.4666666666666667 0
0.33333333333333326 -0.4666666666666667 0
0.46666666666666656 -0.6 0
0.6000000000000001 -0.6 0
0.6000000000000001 -0.4666666666666667 0
0.46666666666666656 -0.4666666666666667 0
0.6000000000000001 -0.6 0
0.7333333333333334 -0.6 0
0.7333333333333334 -0.4666666666666667 0
0.6000000000000001 -0.4666666666666667 0
0.7333333333333334 -0.6 0
0.8666666666666667 -0.6 0
0.8666666666666667 -0.4666666666666667 0
0.7333333333333334 -0.4666666666666667 0
0.8666666666666667 -0.6 0
1 -0.6 0
1 -0.4666666666666667 0
0.8666666666666667 -0.4666666666666667 0
-1 -0.4666666666666667 0
-0.8666666666666667 -0.4666666666666667 0
-0.8666666666666667 -0.33333333333333337 0
-1 -0.33333333333333337 0
-0.8666666666666667 -0.4666666666666667 0
-0.7333333333333334 -0.4666666666666667 0
-0.7333333333333334 -0.33333333333333337 0
-0.8666666666666667 -0.33333333333333337 0
-0.7333333333333334 -0.4666666666666667 0
-0.6 -0.4666666666666667 0
-0.6 -0.33333333333333337 0
-0.7333333333333334 -0.33333333333333337 0
-0.6 -0.4666666666666667 0
-0.4666666666666667 -0.4666666666666667 0
-0.4666666666666667 -0.33333333333333337 0
-0.6 -0.33333333333333337 0
-0.4666666666666667 -0.4666666666666667 0
-0.33333333333333337 -0.4666666666666667 0
-0.33333333333333337 -0.33333333333333337 0
-0.4666666666666667 -0.33333333333333337 0
-0.33333333333333337 -0.4666666666666667 0
-0.19999999999999996 -0.4666666666666667 0
-0.19999999999999996 -0.33333333333333337 0
-0.33333333333333337 -0.33333333333333337 0
-0.19999999999999996 -0.4666666666666667 0
-0.06666666666666665 -0.4666666666666667 0
-0.06666666666666665 -0.33333333333333337 0
-0.19999999999999996 -0.33333333333333337 0
-0.06666666666666665 -0.4666666666666667 0
0.06666666666666665 -0.4666666666666667 0
0.06666666666666665 -0.33333333333333337 0
-0.06666666666666665 -0.33333333333333337 0
0.06666666666666665 -0.4666666666666667 0
0.19999999999999996 -0.4666666666666667 0
0.19999999999999996 -0.33333333333333337 0
0.06666666666666665 -0.33333333333333337 0
0.19999999999999996 -0.4666666666666667 0
0.33333333333333326 -0.4666666666666667 0
0.33333333333333326 -0.33333333333333337 0
0.19999999999999996 -0.33333333333333337 0
0.33333333333333326 -0.4666666666666667 0
0.46666666666666656 -0.4666666666666667 0
0.46666666666666656 -0.33333333333333337 0
[...]
POINT_DATA 1182
SCALARS temperature double 1
LOOKUP_TABLE default
100
86.05518506318816
85.99003302325784
100
86.05518506318816
72.23028663672777
72.11556391113089
85.99003302325784
72.23028663672777
58.61654596370029
58.47968409907811
72.11556391113089
58.61654596370029
45.25607940540999
45.127752823523274
58.47968409907811
45.25607940540999
32.13701456772617
32.040100433325335
45.127752823523274
32.13701456772617
19.205926643152836
19.14920198977463
32.040100433325335
19.205926643152836
6.389370069218586
6.371211831039041
19.14920198977463
6.389370069218586
-6.389370069132362
-6.371211830949569
6.371211831039041
-6.389370069132362
-19.205926643072758
-19.149201989691832
-6.371211830949569
-19.205926643072758
-32.137014567657324
-32.04010043325478
-19.149201989691832
-32.137014567657324
-45.25607940535563
-45.127752823468484
-32.04010043325478
-45.25607940535563
-58.616545963661395
-58.479684099039886
-45.127752823468484
-58.616545963661395
-72.23028663670341
-72.11556391110769
-58.479684099039886
-72.23028663670341
-86.05518506317665
-85.99003302324715
-72.11556391110769
-86.05518506317665
-100
-100
-85.99003302324715
100
85.99003302325784
85.77820902308349
100
85.99003302325784
72.11556391113089
71.74101955193235
85.77820902308349
72.11556391113089
58.47968409907811
58.03354792807905
71.74101955193235
58.47968409907811
45.127752823523274
44.716676572121386
58.03354792807905
45.127752823523274
32.040100433325335
31.74237361874584
44.716676572121386
32.040100433325335
19.14920198977463
18.985777846148487
31.74237361874584
19.14920198977463
6.371211831039041
6.32184090884078
18.985777846148487
6.371211831039041
-6.371211830949569
-6.3218409087410485
6.32184090884078
-6.371211830949569
-19.149201989691832
-18.98577784605698
-6.3218409087410485
-19.149201989691832
-32.04010043325478
-31.74237361866979
-18.98577784605698
-32.04010043325478
-45.127752823468484
-44.7166765720655
-31.74237361866979
-45.127752823468484
-58.479684099039886
-58.03354792804355
-44.7166765720655
-58.479684099039886
-72.11556391110769
-71.74101955191344
-58.03354792804355
-72.11556391110769
-85.99003302324715
-85.77820902307587
-71.74101955191344
-85.99003302324715
-100
-100
-85.77820902307587
100
85.77820902308349
85.37171223260341
100
85.77820902308349
71.74101955193235
71.00734346574333
85.37171223260341
71.74101955193235
58.03354792807905
57.15206273248246
71.00734346574333
58.03354792807905
44.716676572121386
43.92828026862065
57.15206273248246
44.716676572121386
31.74237361874584
31.229610673116383
43.92828026862065
31.74237361874584
18.985777846148487
18.76158834333653
31.229610673116383
18.985777846148487
6.32184090884078
6.270294971009374
18.76158834333653
6.32184090884078
-6.3218409087410485
-6.270294970891205
6.270294971009374
-6.3218409087410485
-18.98577784605698
-18.761588343228013
-6.270294970891205
-18.98577784605698
-31.74237361866979
-31.229610673029548
-18.761588343228013
-31.74237361866979
-44.7166765720655
-43.928280268563164
-31.229610673029548
-44.7166765720655
-58.03354792804355
-57.152062732454816
-43.928280268563164
-58.03354792804355
-71.74101955191344
-71.00734346573527
-57.152062732454816
-71.74101955191344
-85.77820902307587
-85.3717122326034
-71.00734346573527
-85.77820902307587
-100
-100
-85.3717122326034
100
85.37171223260341
84.70688518010093
100
85.37171223260341
71.00734346574333
69.74024063996715
84.70688518010093
71.00734346574333
57.15206273248246
55.53507043769774
69.74024063996715
57.15206273248246
43.92828026862065
42.514322995697896
55.53507043769774
43.92828026862065
31.229610673116383
30.50257719102442
42.514322995697896
31.229610673116383
18.76158834333653
18.685288549235803
30.50257719102442
18.76158834333653
6.270294971009374
6.354942988571194
18.685288549235803
6.270294971009374
-6.270294970891205
-6.354942988425549
6.354942988571194
-6.270294970891205
-18.761588343228013
-18.685288549099383
-6.354942988425549
-18.761588343228013
-31.229610673029548
-30.502577190910614
-18.685288549099383
-31.229610673029548
-43.928280268563164
-42.51432299564293
-30.502577190910614
-43.928280268563164
-57.152062732454816
-55.53507043768861
-42.51432299564293
-57.152062732454816
-71.00734346573527
-69.74024063998607
-55.53507043768861
-71.00734346573527
-85.3717122326034
-84.70688518011643
-69.74024063998607
-85.3717122326034
-100
-100
-84.70688518011643
100
84.70688518010093
83.77473108378427
100
84.70688518010093
69.74024063996715
67.76105401870927
83.77473108378427
69.74024063996715
55.53507043769774
52.6130659686158
67.76105401870927
55.53507043769774
42.514322995697896
39.564193411745286
52.6130659686158
42.514322995697896
30.50257719102442
29.589723282280367
39.564193411745286
30.50257719102442
18.685288549235803
19.747610004162436
29.589723282280367
18.685288549235803
6.354942988571194
7.02596094038579
19.747610004162436
6.354942988571194
-6.354942988425549
-7.025960940243625
7.02596094038579
-6.354942988425549
-18.685288549099383
-19.747610003908513
-7.025960940243625
-18.685288549099383
-30.502577190910614
-29.58972328215799
-19.747610003908513
-30.502577190910614
-42.51432299564293
-39.5641934116554
-29.58972328215799
-42.51432299564293
-55.53507043768861
-52.61306596868333
-39.5641934116554
-55.53507043768861
-69.74024063998607
-67.7610540187879
-52.61306596868333
-69.74024063998607
-84.70688518011643
-83.77473108381878
-67.7610540187879
-84.70688518011643
-100
-100
-83.77473108381878
100
83.77473108378427
82.75845259335333
100
83.77473108378427
67.76105401870927
65.23121623814359
82.75845259335333
67.76105401870927
52.6130659686158
47.728770008011196
65.23121623814359
52.6130659686158
42.42018076659595
36.2612474381169
36.2612474381169
39.564193411745286
52.6130659686158
52.6130659686158
47.728770008011196
42.42018076659595
28.477407067578408
28.477409150586396
28.477558987557096
39.564193411745286
36.2612474381169
29.306816705974693
28.477168877694492
28.47717598699714
28.477409150586396
29.306816705974693
29.589723282280367
39.564193411745286
28.477409150586396
28.477407067578408
28.477168877694492
28.47717598699714
28.477168877694492
28.47693511396095
22.209247696650603
19.747610004162436
29.306816705974693
28.476926124604134
28.47693511396095
28.477168877694492
29.589723282280367
29.306816705974693
19.747610004162436
28.476935113960952
28.476926124604134
28.47676535506204
19.747610004162436
22.209247696650603
7.02596094038579
9.277914941695492
7.02596094038579
14.806547401004238
22.209247696650603
14.806547401004238
7.02596094038579
7.02596094038579
-7.025960940243625
-9.277914941421026
9.277914941695492
-7.025960940243625
-14.80654740089734
-22.209247696618927
-22.209247696618927
-19.747610003908513
-7.025960940243625
-7.025960940243625
-9.277914941421026
-14.80654740089734
-28.47692612485186
-28.476935114208686
-28.476765355309773
-19.747610003908513
-22.209247696618927
-29.306816705937873
-28.477168877942237
-28.477175987244884
-28.476935114208686
-29.306816705937873
-29.58972328215799
-19.747610003908513
-28.476935114208686
-28.47692612485186
-28.477168877942237
-28.477175987244884
-28.477168877942237
-28.477409150834134
-36.26124743816462
-39.5641934116554
-29.306816705937873
-28.47740706782614
-28.477409150834134
-28.477168877942237
-29.58972328215799
-29.306816705937873
-39.5641934116554
-36.26124743816462
-42.42018076688015
-52.61306596868333
-28.477409150834134
-28.47740706782614
-28.477558987804827
-39.5641934116554
-36.26124743816462
-52.61306596868333
-47.7287700083499
-52.61306596868333
-42.42018076688015
-52.61306596868333
-67.7610540187879
-65.23121623825824
-47.7287700083499
-67.7610540187879
-83.77473108381878
-82.75845259340171
-65.23121623825824
-83.77473108381878
-100
-100
-82.75845259340171
100
82.75845259335333
82.06565640487531
100
82.75845259335333
65.23121623814359
63.23496300131387
82.06565640487531
63.23496300131387
46.03517472293633
44.42775412729527
44.42775412729527
47.728770008011196
65.23121623814359
65.23121623814359
63.23496300131387
44.42775412729527
28.47764359411094
28.477643730467495
28.477689199196714
28.47764373046749
28.47764359411094
28.47740468000533
28.47740468000533
28.477407067578408
28.4775589875571
28.47740468000533
28.4775589875571
28.47764373046749
47.728770008011196
44.42775412729527
42.42018076659594
28.477407067578408
28.477168877694492
28.477163105627646
28.47740468000533
28.477168877694492
28.476926124604134
28.476915154752906
28.477163105627646
28.476654461365428
28.476663497155087
28.476915154752906
28.476926124604134
28.476915154752906
28.476765355062035
11.57504745782079
9.277914941695492
14.806547401004238
28.476663497155087
28.476765355062035
28.476915154752906
9.277914941695492
11.57504745782079
-11.575047457797504
-28.47665446161316
-28.476663497402818
-28.476602240973705
11.57504745782079
-8.188170740260048
-11.575047457797504
11.57504745782079
8.188170740094002
-8.188170740260048
28.476663497155087
28.476654461365428
28.476602240725974
-11.575047457797504
-9.277914941421026
9.277914941695492
-28.476663497402814
-28.47665446161316
-28.476915155000636
-28.476915155000636
-28.47692612485186
-28.476765355309773
-28.476915155000636
-28.476765355309773
-28.476663497402814
-9.277914941421026
-11.5750474577975
-14.806547400897342
-28.47692612485186
-28.477168877942237
-28.477163105875377
-28.476915155000636
-28.477168877942237
-28.47740706782614
-28.477404680253045
-28.477163105875377
-44.42775412755001
-47.7287700083499
-42.42018076688015
-28.47740706782614
-28.477404680253045
-28.477558987804827
-28.477643594358657
-28.47764373071521
-28.477404680253045
-28.47764373071521
-28.477558987804827
-28.477404680253045
-63.23496300142211
-65.23121623825824
-44.42775412755001
-44.42775412755001
-46.035174723111766
-63.23496300142211
-28.47764373071521
-28.477643594358657
-28.477689199444434
-47.7287700083499
-44.42775412755001
-65.23121623825824
-65.23121623825824
-82.75845259340171
-82.06565640492646
-63.23496300142211
-82.75845259340171
-100
-100
-82.06565640492646
100
82.06565640487531
82.0656564048784
100
82.06565640487531
63.23496300131387
63.23496300131326
82.0656564048784
28.477689199196714
28.477689199196703
28.47764359411094
46.035174722938194
46.03517472293633
63.23496300131326
63.23496300131387
63.23496300131326
46.03517472293633
28.47764359411093
28.47764359411094
28.477689199196703
28.47764359411094
28.47740468000533
28.477404680005318
28.47764359411093
28.47740468000533
28.477163105627646
28.477163105627653
28.477404680005318
28.477163105627646
28.476915154752906
28.47691515475291
28.477163105627653
28.476915154752906
28.476654461365428
28.476654461365424
28.47691515475291
-28.476654461613165
-28.47665446161316
-28.476602240973705
8.188170740094002
8.188170739928871
-8.188170740260048
8.188170739928871
-8.18817074034985
-8.188170740260048
28.476602240725967
28.476602240725978
28.476654461365428
-28.476654461613165
-28.476602240973705
-28.476602240973705
28.476654461365428
28.476654461365424
28.476602240725967
-28.47665446161316
-28.476915155000636
-28.476915155000626
-28.476654461613165
-28.476915155000636
-28.477163105875377
-28.477163105875373
-28.476915155000626
-28.477163105875377
-28.477404680253045
-28.477404680253038
-28.477163105875373
-28.477404680253045
-28.477643594358657
-28.477643594358653
-28.477404680253038
-28.477689199444427
-28.477689199444434
-28.477643594358653
-28.477643594358657
-28.477643594358653
-28.477689199444434
-63.23496300139993
-63.23496300142211
-46.03517472311271
-46.035174723111766
-46.03517472311271
-63.23496300142211
-63.23496300142211
-82.06565640492646
-82.06565640492978
-63.23496300139993
-82.06565640492646
-100
-100
-82.06565640492978
100
82.0656564048784
82.7584525933589
100
82.0656564048784
63.23496300131326
65.23121623816583
82.7584525933589
63.23496300131326
65.23121623816583
44.42775412737706
47.72877000819821
44.42775412737706
65.23121623816583
28.477643730467484
28.47764359411093
28.477689199196703
44.42775412737706
46.035174722938194
63.23496300131326
28.477407067578415
28.477404680005318
28.477558987557103
28.47764359411093
28.477643730467488
28.477404680005318
28.477643730467488
28.477558987557103
28.477404680005318
44.42775412737706
47.72877000819821
42.42018076670378
28.477404680005318
28.477163105627653
28.47716887769451
28.477407067578415
28.477163105627653
28.47691515475291
28.476926124604148
28.47716887769451
28.476663497155087
28.476654461365424
28.47691515475291
9.277914941411385
11.575047457591097
14.806547400801085
28.47691515475291
28.476926124604148
28.47676535506205
28.47691515475291
28.47676535506205
28.476663497155087
-8.18817074034985
8.188170739928871
11.575047457591097
-28.476663497402818
-28.476654461613165
-28.476602240973705
28.476654461365424
28.476663497155087
28.476602240725967
-9.277914942000624
-11.575047458084397
11.575047457591097
-11.575047458084397
-8.18817074034985
11.575047457591097
11.575047457591097
9.277914941411385
-9.277914942000624
-28.476926124851868
-28.476915155000626
-28.476765355309766
-28.476654461613165
-28.476663497402814
-28.476915155000626
-28.476663497402814
-28.476765355309766
-28.476915155000626
-11.575047458084398
-9.277914942000624
-14.806547401284217
-28.476915155000626
-28.477163105875373
-28.477168877942226
-28.476926124851868
-28.477163105875373
-28.477404680253038
-28.47740706782613
-28.477168877942226
-28.477643730715208
-28.477643594358653
-28.477404680253038
-28.477404680253038
-28.47755898780482
-28.477643730715208
-28.477404680253038
-28.47740706782613
-28.47755898780482
-47.72877000822965
-44.427754127502006
-42.42018076682601
-44.427754127502006
-47.72877000822965
-65.23121623827537
-65.23121623827537
-63.23496300139993
-44.427754127502006
-28.477643594358653
-28.477643730715208
-28.477689199444434
-63.23496300139993
-46.0351747231127
-44.427754127502006
-63.23496300139993
-82.06565640492978
-82.75845259341425
-65.23121623827537
-82.06565640492978
-100
-100
-82.75845259341425
100
82.7584525933589
83.77473108378678
100
82.7584525933589
65.23121623816583
67.76105401872682
83.77473108378678
65.23121623816583
47.72877000819821
52.613065968604204
67.76105401872682
28.477409150586407
28.477407067578415
28.477558987557103
47.72877000819821
52.613065968604204
42.42018076670377
39.56419341173408
36.26124743809444
52.613065968604204
36.26124743809444
42.42018076670377
52.613065968604204
36.26124743809444
39.56419341173408
29.306816705835192
28.477175986997153
28.47716887769451
28.477409150586407
29.58972328208096
29.306816705835192
39.56419341173408
28.477407067578415
28.477409150586407
28.47716887769451
28.47716887769451
28.477175986997153
28.476935113960966
19.747610003980974
22.209247696530383
29.306816705835192
28.476935113960966
28.476926124604148
28.47716887769451
29.306816705835192
29.58972328208096
19.747610003980974
28.476926124604148
28.476935113960966
28.47676535506205
7.02596094010962
14.806547400801087
22.209247696530383
7.02596094010962
9.277914941411385
14.806547400801087
22.209247696530383
19.747610003980974
7.02596094010962
9.277914941411385
-9.277914942000624
-7.0259609405817365
7.02596094010962
-28.47693511420868
-28.476926124851868
-28.476765355309766
-9.277914942000624
-7.0259609405817365
-14.806547401284217
-19.74761000448661
-22.209247696930426
-7.0259609405817365
-22.209247696930426
-14.806547401284217
-7.0259609405817365
-22.209247696930426
-19.74761000448661
-29.306816706351494
-28.477175987244866
-28.477168877942226
-28.47693511420868
-29.589723282695815
-29.306816706351494
-19.74761000448661
-28.476926124851868
-28.47693511420868
-28.477168877942226
-28.477168877942226
-28.477175987244866
-28.477409150834113
-39.5641934122246
-36.26124743848257
-29.306816706351494
-28.477409150834113
-28.47740706782613
-28.477168877942226
-29.306816706351494
-29.589723282695815
-39.5641934122246
-28.47740706782613
-28.477409150834113
-28.477558987804827
-52.61306596887559
-42.420180766826
-36.26124743848257
-52.61306596887559
-47.72877000822965
-42.420180766826
-36.26124743848257
-39.5641934122246
-52.61306596887559
-47.72877000822965
-65.23121623827537
-67.7610540188563
-52.61306596887559
-65.23121623827537
-82.75845259341425
-83.77473108385283
-67.7610540188563
-82.75845259341425
-100
-100
-83.77473108385283
100
83.77473108378678
84.7068851800945
100
83.77473108378678
67.76105401872682
69.7402406399479
84.7068851800945
67.76105401872682
52.613065968604204
55.53507043765829
69.7402406399479
52.613065968604204
39.56419341173408
42.51432299560862
55.53507043765829
39.56419341173408
29.58972328208096
30.502577190883713
42.51432299560862
29.58972328208096
19.747610003980974
18.685288549031537
30.502577190883713
19.747610003980974
7.02596094010962
6.354942988314727
18.685288549031537
7.02596094010962
-7.0259609405817365
-6.354942988759879
6.354942988314727
-7.0259609405817365
-19.74761000448661
-18.685288549487883
-6.354942988759879
-19.74761000448661
-29.589723282695815
-30.502577191324285
-18.685288549487883
-29.589723282695815
-39.5641934122246
-42.51432299598486
-30.502577191324285
-39.5641934122246
-52.61306596887559
-55.53507043792601
-42.51432299598486
-52.61306596887559
-67.7610540188563
-69.74024064010835
-55.53507043792601
-67.7610540188563
-83.77473108385283
-84.7068851801683
-69.74024064010835
-83.77473108385283
-100
-100
-84.7068851801683
100
84.7068851800945
85.37171223258724
100
84.7068851800945
69.7402406399479
71.0073434657073
85.37171223258724
69.7402406399479
55.53507043765829
57.15206273241807
71.0073434657073
55.53507043765829
42.51432299560862
43.92828026851938
57.15206273241807
42.51432299560862
30.502577190883713
31.229610672970267
43.92828026851938
30.502577190883713
18.685288549031537
18.76158834314378
31.229610672970267
18.685288549031537
6.354942988314727
6.270294970768324
18.76158834314378
6.354942988314727
-6.354942988759879
-6.270294971174801
6.270294970768324
-6.354942988759879
-18.685288549487883
-18.761588343540694
-6.270294971174801
-18.685288549487883
-30.502577191324285
-31.22961067333922
-18.761588343540694
-30.502577191324285
-42.51432299598486
-43.928280268834584
-31.22961067333922
-42.51432299598486
-55.53507043792601
-57.15206273265876
-43.928280268834584
-55.53507043792601
-69.74024064010835
-71.00734346586498
-57.15206273265876
-69.74024064010835
-84.7068851801683
-85.37171223266408
-71.00734346586498
-84.7068851801683
-100
-100
-85.37171223266408
100
85.37171223258724
85.77820902306179
100
85.37171223258724
71.0073434657073
71.74101955188634
85.77820902306179
71.0073434657073
57.15206273241807
58.03354792800416
71.74101955188634
57.15206273241807
43.92828026851938
44.716676572012524
58.03354792800416
43.92828026851938
31.229610672970267
31.742373618599345
44.716676572012524
31.229610672970267
18.76158834314378
18.98577784596314
31.742373618599345
18.76158834314378
6.270294970768324
6.321840908619272
18.98577784596314
6.270294970768324
-6.270294971174801
-6.3218409089911916
6.321840908619272
-6.270294971174801
-18.761588343540694
-18.98577784632108
-6.3218409089911916
-18.761588343540694
-31.22961067333922
-31.742373618927182
-18.98577784632108
-31.22961067333922
-43.928280268834584
-44.716676572293196
-31.742373618927182
-43.928280268834584
-57.15206273265876
-58.033547928223186
-44.716676572293196
-57.15206273265876
-71.00734346586498
-71.74101955203477
-58.033547928223186
-71.00734346586498
-85.37171223266408
-85.77820902313631
-71.74101955203477
-85.37171223266408
-100
-100
-85.77820902313631
100
85.77820902306179
85.99003302323337
100
85.77820902306179
71.74101955188634
72.1155639110802
85.99003302323337
71.74101955188634
58.03354792800416
58.47968409899831
72.1155639110802
58.03354792800416
44.716676572012524
45.127752823411285
58.47968409899831
44.716676572012524
31.742373618599345
32.04010043317928
45.127752823411285
31.742373618599345
18.98577784596314
19.149201989595028
32.04010043317928
18.98577784596314
6.321840908619272
6.371211830829856
19.149201989595028
6.321840908619272
-6.3218409089911916
-6.371211831179961
6.371211830829856
-6.3218409089911916
-18.98577784632108
-19.149201989930436
-6.371211831179961
-18.98577784632108
-31.742373618927182
-32.040100433485115