# vtk DataFile Version 4.1
Header:
ASCII

DATASET UNSTRUCTURED_GRID
POINTS 256 double
-1 -1 0
-0.8666666666666667 -1 0
-0.7333333333333334 -1 0
-0.6 -1 0
-0.4666666666666667 -1 0
-0.33333333333333337 -1 0
-0.19999999999999996 -1 0
-0.06666666666666665 -1 0
0.06666666666666665 -1 0
0.19999999999999996 -1 0
0.33333333333333326 -1 0
0.46666666666666656 -1 0
0.6000000000000001 -1 0
0.7333333333333334 -1 0
0.8666666666666667 -1 0
1 -1 0
-1 -0.8666666666666667 0
-0.8666666666666667 -0.8666666666666667 0
-0.7333333333333334 -0.8666666666666667 0
-0.6 -0.8666666666666667 0
-0.4666666666666667 -0.8666666666666667 0
-0.33333333333333337 -0.8666666666666667 0
-0.19999999999999996 -0.8666666666666667 0
-0.06666666666666665 -0.8666666666666667 0
0.06666666666666665 -0.8666666666666667 0
0.19999999999999996 -0.8666666666666667 0
0.33333333333333326 -0.8666666666666667 0
0.46666666666666656 -0.8666666666666667 0
0.6000000000000001 -0.8666666666666667 0
0.7333333333333334 -0.8666666666666667 0
0.8666666666666667 -0.8666666666666667 0
1 -0.8666666666666667 0
-1 -0.7333333333333334 0
-0.8666666666666667 -0.7333333333333334 0
-0.7333333333333334 -0.7333333333333334 0
-0.6 -0.7333333333333334 0
-0.4666666666666667 -0.7333333333333334 0
-0.33333333333333337 -0.7333333333333334 0
-0.19999999999999996 -0.7333333333333334 0
-0.06666666666666665 -0.7333333333333334 0
0.06666666666666665 -0.7333333333333334 0
0.19999999999999996 -0.7333333333333334 0
0.33333333333333326 -0.7333333333333334 0
0.46666666666666656 -0.7333333333333334 0
0.6000000000000001 -0.7333333333333334 0
0.7333333333333334 -0.7333333333333334 0
0.8666666666666667 -0.7333333333333334 0
1 -0.7333333333333334 0
-1 -0.6 0
-0.8666666666666667 -0.6 0
-0.7333333333333334 -0.6 0
-0.6 -0.6 0
-0.4666666666666667 -0.6 0
-0.33333333333333337 -0.6 0
-0.19999999999999996 -0.6 0
-0.06666666666666665 -0.6 0
0.06666666666666665 -0.6 0
0.19999999999999996 -0.6 0
0.33333333333333326 -0.6 0
0.46666666666666656 -0.6 0
0.6000000000000001 -0.6 0
0.7333333333333334 -0.6 0
0.8666666666666667 -0.6 0
1 -0.6 0
-1 -0.4666666666666667 0
-0.8666666666666667 -0.4666666666666667 0
-0.7333333333333334 -0.4666666666666667 0
-0.6 -0.4666666666666667 0
-0.4666666666666667 -0.4666666666666667 0
-0.33333333333333337 -0.4666666666666667 0
-0.19999999999999996 -0.4666666666666667 0
-0.06666666666666665 -0.4666666666666667 0
0.06666666666666665 -0.4666666666666667 0
0.19999999999999996 -0.4666666666666667 0
0.33333333333333326 -0.4666666666666667 0
0.46666666666666656 -0.4666666666666667 0
0.6000000000000001 -0.4666666666666667 0
0.7333333333333334 -0.4666666666666667 0
0.8666666666666667 -0.4666666666666667 0
1 -0.4666666666666667 0
-1 -0.33333333333333337 0
-0.8666666666666667 -0.33333333333333337 0
-0.7333333333333334 -0.33333333333333337 0
-0.6 -0.33333333333333337 0
-0.4666666666666667 -0.33333333333333337 0
-0.33333333333333337 -0.33333333333333337 0
-0.19999999999999996 -0.33333333333333337 0
-0.06666666666666665 -0.33333333333333337 0
0.06666666666666665 -0.33333333333333337 0
0.19999999999999996 -0.33333333333333337 0
0.33333333333333326 -0.33333333333333337 0
0.46666666666666656 -0.33333333333333337 0
0.6000000000000001 -0.33333333333333337 0
0.7333333333333334 -0.33333333333333337 0
0.8666666666666667 -0.33333333333333337 0
1 -0.33333333333333337 0
-1 -0.19999999999999996 0
-0.8666666666666667 -0.19999999999999996 0
-0.7333333333333334 -0.19999999999999996 0
-0.6 -0.19999999999999996 0
-0.4666666666666667 -0.19999999999999996 0
-0.33333333333333337 -0.19999999999999996 0
-0.19999999999999996 -0.19999999999999996 0
-0.06666666666666665 -0.19999999999999996 0
0.06666666666666665 -0.19999999999999996 0
0.19999999999999996 -0.19999999999999996 0
0.33333333333333326 -0.19999999999999996 0
0.46666666666666656 -0.19999999999999996 0
0.6000000000000001 -0.19999999999999996 0
0.7333333333333334 -0.19999999999999996 0
0.8666666666666667 -0.19999999999999996 0
1 -0.19999999999999996 0
-1 -0.06666666666666665 0
-0.8666666666666667 -0.06666666666666665 0
-0.7333333333333334 -0.06666666666666665 0
-0.6 -0.06666666666666665 0
-0.4666666666666667 -0.06666666666666665 0
-0.33333333333333337 -0.06666666666666665 0
-0.19999999999999996 -0.06666666666666665 0
-0.06666666666666665 -0.06666666666666665 0
0.06666666666666665 -0.06666666666666665 0
0.19999999999999996 -0.06666666666666665 0
0.33333333333333326 -0.06666666666666665 0
0.46666666666666656 -0.06666666666666665 0
0.6000000000000001 -0.06666666666666665 0
0.7333333333333334 -0.06666666666666665 0
0.8666666666666667 -0.06666666666666665 0
1 -0.06666666666666665 0
-1 0.06666666666666665 0
-0.8666666666666667 0.06666666666666665 0
-0.7333333333333334 0.06666666666666665 0
-0.6 0.06666666666666665 0
-0.4666666666666667 0.06666666666666665 0
-0.33333333333333337 0.06666666666666665 0
-0.19999999999999996 0.06666666666666665 0
-0.06666666666666665 0.06666666666666665 0
0.06666666666666665 0.06666666666666665 0
0.19999999999999996 0.06666666666666665 0
0.33333333333333326 0.06666666666666665 0
0.46666666666666656 0.06666666666666665 0
0.6000000000000001 0.06666666666666665 0
0.7333333333333334 0.06666666666666665 0
0.8666666666666667 0.06666666666666665 0
1 0.06666666666666665 0
-1 0.19999999999999996 0
-0.8666666666666667 0.19999999999999996 0
-0.7333333333333334 0.19999999999999996 0
-0.6 0.19999999999999996 0
-0.4666666666666667 0.19999999999999996 0
-0.33333333333333337 0.19999999999999996 0
-0.19999999999999996 0.19999999999999996 0
-0.06666666666666665 0.19999999999999996 0
0.06666666666666665 0.19999999999999996 0
0.19999999999999996 0.19999999999999996 0
0.33333333333333326 0.19999999999999996 0
0.46666666666666656 0.19999999999999996 0
0.6000000000000001 0.19999999999999996 0
0.7333333333333334 0.19999999999999996 0
0.8666666666666667 0.19999999999999996 0
1 0.19999999999999996 0
-1 0.33333333333333326 0
-0.8666666666666667 0.33333333333333326 0
-0.7333333333333334 0.33333333333333326 0
-0.6 0.33333333333333326 0
-0.4666666666666667 0.33333333333333326 0
-0.33333333333333337 0.33333333333333326 0
-0.19999999999999996 0.33333333333333326 0
-0.06666666666666665 0.33333333333333326 0
0.06666666666666665 0.33333333333333326 0
0.19999999999999996 0.33333333333333326 0
0.33333333333333326 0.33333333333333326 0
0.46666666666666656 0.33333333333333326 0
0.6000000000000001 0.33333333333333326 0
0.7333333333333334 0.33333333333333326 0
0.8666666666666667 0.33333333333333326 0
1 0.33333333333333326 0
-1 0.46666666666666656 0
-0.8666666666666667 0.46666666666666656 0
-0.7333333333333334 0.46666666666666656 0
-0.6 0.46666666666666656 0
-0.4666666666666667 0.46666666666666656 0
-0.33333333333333337 0.46666666666666656 0
-0.19999999999999996 0.46666666666666656 0
-0.06666666666666665 0.46666666666666656 0
0.06666666666666665 0.46666666666666656 0
0.19999999999999996 0.46666666666666656 0
0.33333333333333326 0.46666666666666656 0
0.46666666666666656 0.46666666666666656 0
0.6000000000000001 0.46666666666666656 0
0.7333333333333334 0.46666666666666656 0
0.8666666666666667 0.46666666666666656 0
1 0.46666666666666656 0
-1 0.6000000000000001 0
-0.8666666666666667 0.6000000000000001 0
-0.7333333333333334 0.6000000000000001 0
-0.6 0.6000000000000001 0
-0.4666666666666667 0.6000000000000001 0
-0.33333333333333337 0.6000000000000001 0
-0.19999999999999996 0.6000000000000001 0
-0.06666666666666665 0.6000000000000001 0
0.06666666666666665 0.6000000000000001 0
0.19999999999999996 0.6000000000000001 0
0.33333333333333326 0.6000000000000001 0
0.46666666666666656 0.6000000000000001 0
0.6000000000000001 0.6000000000000001 0
0.7333333333333334 0.6000000000000001 0
0.8666666666666667 0.6000000000000001 0
1 0.6000000000000001 0
-1 0.7333333333333334 0
-0.8666666666666667 0.7333333333333334 0
-0.7333333333333334 0.7333333333333334 0
-0.6 0.7333333333333334 0
-0.4666666666666667 0.7333333333333334 0
-0.33333333333333337 0.7333333333333334 0
-0.19999999999999996 0.7333333333333334 0
-0.06666666666666665 0.7333333333333334 0
0.06666666666666665 0.7333333333333334 0
0.19999999999999996 0.7333333333333334 0
0.33333333333333326 0.7333333333333334 0
0.46666666666666656 0.7333333333333334 0
0.6000000000000001 0.7333333333333334 0
0.7333333333333334 0.7333333333333334 0
0.8666666666666667 0.7333333333333334 0
1 0.7333333333333334 0
-1 0.8666666666666667 0
-0.8666666666666667 0.8666666666666667 0
-0.7333333333333334 0.8666666666666667 0
-0.6 0.8666666666666667 0
-0.4666666666666667 0.8666666666666667 0
-0.33333333333333337 0.8666666666666667 0
-0.19999999999999996 0.8666666666666667 0
-0.06666666666666665 0.8666666666666667 0
0.06666666666666665 0.8666666666666667 0
0.19999999999999996 0.8666666666666667 0
0.33333333333333326 0.8666666666666667 0
0.46666666666666656 0.8666666666666667 0
0.6000000000000001 0.8666666666666667 0
0.7333333333333334 0.8666666666666667 0
0.8666666666666667 0.8666666666666667 0
1 0.8666666666666667 0
-1 1 0
-0.8666666666666667 1 0
-0.7333333333333334 1 0
-0.6 1 0
-0.4666666666666667 1 0
-0.33333333333333337 1 0
-0.19999999999999996 1 0
-0.06666666666666665 1 0
0.06666666666666665 1 0
0.19999999999999996 1 0
0.33333333333333326 1 0
0.46666666666666656 1 0
0.6000000000000001 1 0
0.7333333333333334 1 0
0.8666666666666667 1 0
1 1 0


POINT_DATA 256
SCALARS temperature double 1
LOOKUP_TABLE default
100
86.05518506318816
72.23028663672777
58.61654596370029
45.25607940540999
32.13701456772617
19.205926643152836
6.389370069218586
-6.389370069132362
-19.205926643072758
-32.137014567657324
-45.25607940535563
-58.616545963661395
-72.23028663670341
-86.05518506317665
-100
100
85.99003302325784
72.11556391113089
58.47968409907811
45.127752823523274
32.040100433325335
19.14920198977463
6.371211831039041
-6.371211830949569
-19.149201989691832
-32.04010043325478
-45.127752823468484
-58.479684099039886
-72.11556391110769
-85.99003302324715
-100
100
85.77820902308349
71.74101955193235
58.03354792807905
44.716676572121386
31.74237361874584
18.985777846148487
6.32184090884078
-6.3218409087410485
-18.98577784605698
-31.74237361866979
-44.7166765720655
-58.03354792804355
-71.74101955191344
-85.77820902307587
-100
100
85.37171223260341
71.00734346574333
57.15206273248246
43.92828026862065
31.229610673116383
18.76158834333653
6.270294971009374
-6.270294970891205
-18.761588343228013
-31.229610673029548
-43.928280268563164
-57.152062732454816
-71.00734346573527
-85.3717122326034
-100
100
84.70688518010093
69.74024063996715
55.53507043769774
42.514322995697896
30.50257719102442
18.685288549235803
6.354942988571194
-6.354942988425549
-18.685288549099383
-30.502577190910614
-42.51432299564293
-55.53507043768861
-69.74024063998607
-84.70688518011643
-100
100
83.77473108378427
67.76105401870927
52.6130659686158
39.564193411745286
29.589723282280367
19.747610004162436
7.02596094038579
-7.025960940243625
-19.747610003908513
-29.58972328215799
-39.5641934116554
-52.61306596868333
-67.7610540187879
-83.77473108381878
-100
100
82.75845259335333
65.23121623814359
47.728770008011196
28.477407067578408
28.477168877694492
28.476926124604134
9.277914941695492
-9.277914941421026
-28.47692612485186
-28.477168877942237
-28.47740706782614
-47.7287700083499
-65.23121623825824
-82.75845259340171
-100
100
82.06565640487531
63.23496300131387
28.47764359411094
28.47740468000533
28.477163105627646
28.476915154752906
28.476654461365428
-28.47665446161316
-28.476915155000636
-28.477163105875377
-28.477404680253045
-28.477643594358657
-63.23496300142211
-82.06565640492646
-100
100
82.0656564048784
63.23496300131326
28.47764359411093
28.477404680005318
28.477163105627653
28.47691515475291
28.476654461365424
-28.476654461613165
-28.476915155000626
-28.477163105875373
-28.477404680253038
-28.477643594358653
-63.23496300139993
-82.06565640492978
-100
100
82.7584525933589
65.23121623816583
47.72877000819821
28.477407067578415
28.47716887769451
28.476926124604148
9.277914941411385
-9.277914942000624
-28.476926124851868
-28.477168877942226
-28.47740706782613
-47.72877000822965
-65.23121623827537
-82.75845259341425
-100
100
83.77473108378678
67.76105401872682
52.613065968604204
39.56419341173408
29.58972328208096
19.747610003980974
7.02596094010962
-7.0259609405817365
-19.74761000448661
-29.589723282695815
-39.5641934122246
-52.61306596887559
-67.7610540188563
-83.77473108385283
-100
100
84.7068851800945
69.7402406399479
55.53507043765829
42.51432299560862
30.502577190883713
18.685288549031537
6.354942988314727
-6.354942988759879
-18.685288549487883
-30.502577191324285
-42.51432299598486
-55.53507043792601
-69.74024064010835
-84.7068851801683
-100
100
85.37171223258724
71.0073434657073
57.15206273241807
43.92828026851938
31.229610672970267
18.76158834314378
6.270294970768324
-6.270294971174801
-18.761588343540694
-31.22961067333922
-43.928280268834584
-57.15206273265876
-71.00734346586498
-85.37171223266408
-100
100
85.77820902306179
71.74101955188634
58.03354792800416
44.716676572012524
31.742373618599345
18.98577784596314
6.321840908619272
-6.3218409089911916
-18.98577784632108
-31.742373618927182
-44.716676572293196
-58.033547928223186
-71.74101955203477
-85.77820902313631
-100
100
85.99003302323337
72.1155639110802
58.47968409899831
45.127752823411285
32.04010043317928
19.149201989595028
6.371211830829856
-6.371211831179961
-19.149201989930436
-32.040100433485115
-45.12775282367326
-58.47968409920429
-72.11556391122156
-85.99003302330507
-100
100
86.05518506316287
72.23028663667573
58.61654596361907
45.25607940529716
32.13701456758046
19.205926642975303
6.3893700690136
-6.389370069356355
-19.205926643303336
-32.13701456787926
-45.256079405553166
-58.61654596382074
-72.23028663681451
-86.05518506323348
-100

