# vtk DataFile Version 4.1
Header:
ASCII

DATASET UNSTRUCTURED_GRID
POINTS 1316 double
-0.9718233512793084 -0.9718233512793084 0.0
-0.8948433153873585 -0.9718233512793084 0.0
-0.9718233512793084 -0.8948433153873584 0.0
-0.8948433153873583 -0.8948433153873584 0.0
-0.8384900179459752 -0.9718233512793084 0.0
-0.761509982054025 -0.9718233512793084 0.0
-0.8384900179459751 -0.8948433153873584 0.0
-0.7615099820540251 -0.8948433153873584 0.0
-0.7051566846126418 -0.9718233512793084 0.0
-0.6281766487206917 -0.9718233512793084 0.0
-0.7051566846126418 -0.8948433153873584 0.0
-0.6281766487206917 -0.8948433153873584 0.0
-0.5718233512793084 -0.9718233512793084 0.0
-0.4948433153873583 -0.9718233512793084 0.0
-0.5718233512793084 -0.8948433153873584 0.0
-0.49484331538735826 -0.8948433153873584 0.0
-0.4384900179459751 -0.9718233512793084 0.0
-0.361509982054025 -0.9718233512793084 0.0
-0.4384900179459751 -0.8948433153873584 0.0
-0.361509982054025 -0.8948433153873584 0.0
-0.3051566846126417 -0.9718233512793084 0.0
-0.2281766487206916 -0.9718233512793084 0.0
-0.3051566846126418 -0.8948433153873584 0.0
-0.2281766487206916 -0.8948433153873584 0.0
-0.17182335127930834 -0.9718233512793084 0.0
-0.09484331538735827 -0.9718233512793084 0.0
-0.17182335127930837 -0.8948433153873584 0.0
-0.09484331538735827 -0.8948433153873584 0.0
-0.038490017945975036 -0.9718233512793084 0.0
0.03849001794597504 -0.9718233512793084 0.0
-0.03849001794597504 -0.8948433153873584 0.0
0.038490017945975036 -0.8948433153873584 0.0
0.09484331538735827 -0.9718233512793084 0.0
0.17182335127930834 -0.9718233512793084 0.0
0.09484331538735827 -0.8948433153873584 0.0
0.17182335127930834 -0.8948433153873584 0.0
0.22817664872069157 -0.9718233512793084 0.0
0.3051566846126417 -0.9718233512793084 0.0
0.2281766487206916 -0.8948433153873584 0.0
0.30515668461264167 -0.8948433153873584 0.0
0.36150998205402496 -0.9718233512793084 0.0
0.43849001794597503 -0.9718233512793084 0.0
0.3615099820540249 -0.8948433153873584 0.0
0.438490017945975 -0.8948433153873584 0.0
0.49484331538735826 -0.9718233512793084 0.0
0.5718233512793084 -0.9718233512793084 0.0
0.49484331538735826 -0.8948433153873584 0.0
0.5718233512793084 -0.8948433153873584 0.0
0.6281766487206917 -0.9718233512793084 0.0
0.7051566846126418 -0.9718233512793084 0.0
0.6281766487206917 -0.8948433153873584 0.0
0.7051566846126417 -0.8948433153873584 0.0
0.761509982054025 -0.9718233512793084 0.0
0.8384900179459751 -0.9718233512793084 0.0
0.761509982054025 -0.8948433153873584 0.0
0.8384900179459751 -0.8948433153873584 0.0
0.8948433153873585 -0.9718233512793084 0.0
0.9718233512793085 -0.9718233512793084 0.0
0.8948433153873584 -0.8948433153873584 0.0
0.9718233512793085 -0.8948433153873584 0.0
-0.9718233512793084 -0.8384900179459751 0.0
-0.8948433153873585 -0.8384900179459751 0.0
-0.9718233512793084 -0.761509982054025 0.0
-0.8948433153873583 -0.761509982054025 0.0
-0.8384900179459752 -0.8384900179459751 0.0
-0.761509982054025 -0.8384900179459751 0.0
-0.8384900179459751 -0.761509982054025 0.0
-0.7615099820540251 -0.761509982054025 0.0
-0.7051566846126418 -0.8384900179459751 0.0
-0.6281766487206917 -0.8384900179459751 0.0
-0.7051566846126418 -0.761509982054025 0.0
-0.6281766487206917 -0.761509982054025 0.0
-0.5718233512793084 -0.8384900179459751 0.0
-0.4948433153873583 -0.8384900179459751 0.0
-0.5718233512793084 -0.761509982054025 0.0
-0.49484331538735826 -0.761509982054025 0.0
-0.4384900179459751 -0.8384900179459751 0.0
-0.361509982054025 -0.8384900179459751 0.0
-0.4384900179459751 -0.761509982054025 0.0
-0.361509982054025 -0.761509982054025 0.0
-0.3051566846126417 -0.8384900179459751 0.0
-0.2281766487206916 -0.8384900179459751 0.0
-0.3051566846126418 -0.761509982054025 0.0
-0.2281766487206916 -0.761509982054025 0.0
-0.17182335127930834 -0.8384900179459751 0.0
-0.09484331538735827 -0.8384900179459751 0.0
-0.17182335127930837 -0.761509982054025 0.0
-0.09484331538735827 -0.761509982054025 0.0
-0.038490017945975036 -0.8384900179459751 0.0
0.03849001794597504 -0.8384900179459751 0.0
-0.03849001794597504 -0.761509982054025 0.0
0.038490017945975036 -0.761509982054025 0.0
0.09484331538735827 -0.8384900179459751 0.0
0.17182335127930834 -0.8384900179459751 0.0
0.09484331538735827 -0.761509982054025 0.0
0.17182335127930834 -0.761509982054025 0.0
0.22817664872069157 -0.8384900179459751 0.0
0.3051566846126417 -0.8384900179459751 0.0
0.2281766487206916 -0.761509982054025 0.0
0.30515668461264167 -0.761509982054025 0.0
0.36150998205402496 -0.8384900179459751 0.0
0.43849001794597503 -0.8384900179459751 0.0
0.3615099820540249 -0.761509982054025 0.0
0.438490017945975 -0.761509982054025 0.0
0.49484331538735826 -0.8384900179459751 0.0
0.5718233512793084 -0.8384900179459751 0.0
0.49484331538735826 -0.761509982054025 0.0
0.5718233512793084 -0.761509982054025 0.0
0.6281766487206917 -0.8384900179459751 0.0
0.7051566846126418 -0.8384900179459751 0.0
0.6281766487206917 -0.761509982054025 0.0
0.7051566846126417 -0.761509982054025 0.0
0.761509982054025 -0.8384900179459751 0.0
0.8384900179459751 -0.8384900179459751 0.0
0.761509982054025 -0.761509982054025 0.0
0.8384900179459751 -0.761509982054025 0.0
0.8948433153873585 -0.8384900179459751 0.0
0.9718233512793085 -0.8384900179459751 0.0
0.8948433153873584 -0.761509982054025 0.0
0.9718233512793085 -0.761509982054025 0.0
-0.9718233512793084 -0.7051566846126418 0.0
-0.8948433153873585 -0.7051566846126418 0.0
-0.9718233512793084 -0.6281766487206917 0.0
-0.8948433153873583 -0.6281766487206916 0.0
-0.8384900179459752 -0.7051566846126418 0.0
-0.761509982054025 -0.7051566846126418 0.0
-0.8384900179459751 -0.6281766487206917 0.0
-0.7615099820540251 -0.6281766487206916 0.0
-0.7051566846126418 -0.7051566846126418 0.0
-0.6281766487206917 -0.7051566846126418 0.0
-0.7051566846126418 -0.6281766487206917 0.0
-0.6281766487206917 -0.6281766487206916 0.0
-0.5718233512793084 -0.7051566846126418 0.0
-0.4948433153873583 -0.7051566846126418 0.0
-0.5718233512793084 -0.6281766487206917 0.0
-0.49484331538735826 -0.6281766487206916 0.0
-0.4384900179459751 -0.7051566846126418 0.0
-0.361509982054025 -0.7051566846126418 0.0
-0.4384900179459751 -0.6281766487206917 0.0
-0.361509982054025 -0.6281766487206916 0.0
-0.3051566846126417 -0.7051566846126418 0.0
-0.2281766487206916 -0.7051566846126418 0.0
-0.3051566846126418 -0.6281766487206917 0.0
-0.2281766487206916 -0.6281766487206916 0.0
-0.17182335127930834 -0.7051566846126418 0.0
-0.09484331538735827 -0.7051566846126418 0.0
-0.17182335127930837 -0.6281766487206917 0.0
-0.09484331538735827 -0.6281766487206916 0.0
-0.038490017945975036 -0.7051566846126418 0.0
0.03849001794597504 -0.7051566846126418 0.0
-0.03849001794597504 -0.6281766487206917 0.0
0.038490017945975036 -0.6281766487206916 0.0
0.09484331538735827 -0.7051566846126418 0.0
0.17182335127930834 -0.7051566846126418 0.0
0.09484331538735827 -0.6281766487206917 0.0
0.17182335127930834 -0.6281766487206916 0.0
0.22817664872069157 -0.7051566846126418 0.0
0.3051566846126417 -0.7051566846126418 0.0
0.2281766487206916 -0.6281766487206917 0.0
0.30515668461264167 -0.6281766487206916 0.0
0.36150998205402496 -0.7051566846126418 0.0
0.43849001794597503 -0.7051566846126418 0.0
0.3615099820540249 -0.6281766487206917 0.0
0.438490017945975 -0.6281766487206916 0.0
0.49484331538735826 -0.7051566846126418 0.0
0.5718233512793084 -0.7051566846126418 0.0
0.49484331538735826 -0.6281766487206917 0.0
0.5718233512793084 -0.6281766487206916 0.0
0.6281766487206917 -0.7051566846126418 0.0
0.7051566846126418 -0.7051566846126418 0.0
0.6281766487206917 -0.6281766487206917 0.0
0.7051566846126417 -0.6281766487206916 0.0
0.761509982054025 -0.7051566846126418 0.0
0.8384900179459751 -0.7051566846126418 0.0
0.761509982054025 -0.6281766487206917 0.0
0.8384900179459751 -0.6281766487206916 0.0
0.8948433153873585 -0.7051566846126418 0.0
0.9718233512793085 -0.7051566846126418 0.0
0.8948433153873584 -0.6281766487206917 0.0
0.9718233512793085 -0.6281766487206916 0.0
-0.9718233512793084 -0.5718233512793084 0.0
-0.8948433153873585 -0.5718233512793084 0.0
-0.9718233512793084 -0.4948433153873583 0.0
-0.8948433153873583 -0.4948433153873583 0.0
-0.8384900179459752 -0.5718233512793084 0.0
-0.761509982054025 -0.5718233512793084 0.0
-0.8384900179459751 -0.4948433153873583 0.0
-0.7615099820540251 -0.4948433153873583 0.0
-0.7051566846126418 -0.5718233512793084 0.0
-0.6281766487206917 -0.5718233512793084 0.0
-0.7051566846126418 -0.4948433153873583 0.0
-0.6281766487206917 -0.4948433153873583 0.0
-0.49558744682745126 -0.5111111111111106 0.0
-0.4905635283735289 -0.5777777777777773 0.0
-0.5572301950401954 -0.5777777777777773 0.0
-0.5794524172624183 -0.4888888888888881 0.0
-0.517809669049674 -0.488888888888888 0.0
-0.5794524172624181 -0.5555555555555547 0.0
-0.46834130615130753 -0.5563356030365706 0.0
-0.4733652246052299 -0.489668936369904 0.0
-0.46834130615130753 -0.49200907881294814 0.0
-0.46834130615130753 -0.46978685659072555 0.0
-0.47336522460523 -0.46744671414768146 0.0
-0.4683413061513076 -0.46744671414768146 0.0
-0.44444444444444403 -0.4973770926665012 0.0
-0.3777777777777773 -0.5111409917841196 0.0
-0.4444444444444441 -0.5617036168901237 0.0
-0.35555555555555607 -0.4889187695618983 0.0
-0.42222222222222267 -0.47515487044427984 0.0
-0.35555555555555607 -0.47281472800123575 0.0
-0.355555555555556 -0.5831457916313326 0.0
-0.42222222222222267 -0.5831457916313325 0.0
-0.355555555555556 -0.5325831665253287 0.0
-0.44444444444444403 -0.46744671414768135 0.0
-0.3777777777777773 -0.46744671414768135 0.0
-0.44444444444444403 -0.4697868565907255 0.0
-0.3111111111111107 -0.47589160992559043 0.0
-0.24444444444444402 -0.48746239814169934 0.0
-0.31111111111111067 -0.491995651486253 0.0
-0.22222222222222265 -0.5647804988144798 0.0
-0.2888888888888893 -0.5142178737084758 0.0
-0.22222222222222263 -0.509684620363922 0.0
-0.22222222222222265 -0.48209438428814533 0.0
-0.28888888888888936 -0.4705235960720364 0.0
-0.22222222222222265 -0.4705235960720364 0.0
-0.31111111111111067 -0.5325831665253276 0.0
[...]
POINT_DATA 1316
SCALARS element_ids double 1
LOOKUP_TABLE default
0
0
0
0
1
1
1
1
2
2
2
2
3
3
3
3
4
4
4
4
5
5
5
5
6
6
6
6
7
7
7
7
8
8
8
8
9
9
9
9
10
10
10
10
11
11
11
11
12
12
12
12
13
13
13
13
14
14
14
14
15
15
15
15
16
16
16
16
17
17
17
17
18
18
18
18
19
19
19
19
20
20
20
20
21
21
21
21
22
22
22
22
23
23
23
23
24
24
24
24
25
25
25
25
26
26
26
26
27
27
27
27
28
28
28
28
29
29
29
29
30
30
30
30
31
31
31
31
32
32
32
32
33
33
33
33
34
34
34
34
35
35
35
35
36
36
36
36
37
37
37
37
38
38
38
38
39
39
39
39
40
40
40
40
41
41
41
41
42
42
42
42
43
43
43
43
44
44
44
44
45
45
45
45
46
46
46
46
47
47
47
47
48
48
48
48
48
48
48
48
48
48
48
48
49
49
49
49
49
49
49
49
49
49
49
49
50
50
50
50
50
50
50
50
50
50
50
50
51
51
51
51
51
51
51
51
51
51
51
51
52
52
52
52
53
53
53
53
54
54
54
54
55
55
55
55
56
56
56
56
57
57
57
57
58
58
58
58
59
59
59
59
60
60
60
60
61
61
61
61
62
62
62
62
62
62
62
62
62
62
62
62
63
63
63
63
63
63
63
63
63
63
63
63
64
64
64
64
65
65
65
65
66
66
66
66
66
66
66
66
66
66
66
66
67
67
67
67
67
67
67
67
67
67
67
67
68
68
68
68
68
68
68
68
68
68
68
68
69
69
69
69
69
69
69
69
69
69
69
69
70
70
70
70
70
70
70
70
70
70
70
70
71
71
71
71
71
71
71
71
71
71
71
71
72
72
72
72
73
73
73
73
74
74
74
74
75
75
75
75
76
76
76
76
76
76
76
76
76
76
76
76
77
77
77
77
77
77
77
77
77
77
77
77
78
78
78
78
79
79
79
79
80
80
80
80
81
81
81
81
82
82
82
82
83
83
83
83
84
84
84
84
85
85
85
85
86
86
86
86
86
86
86
86
86
86
86
86
87
87
87
87
87
87
87
87
87
87
87
87
88
88
88
88
89
89
89
89
90
90
90
90
91
91
91
91
91
91
91
91
91
91
91
91
92
92
92
92
93
93
93
93
94
94
94
94
94
94
94
94
94
94
94
94
95
95
95
95
95
95
95
95
95
95
95
95
96
96
96
96
96
96
96
96
96
96
96
96
97
97
97
97
98
98
98
98
99
99
99
99
99
99
99
99
99
99
99
99
100
100
100
100
100
100
100
100
100
100
100
100
101
101
101
101
102
102
102
102
102
102
102
102
102
102
102
102
103
103
103
103
104
104
104
104
105
105
105
105
106
106
106
106
106
106
106
106
106
106
106
106
107
107
107
107
108
108
108
108
109
109
109
109
109
109
109
109
109
109
109
109
110
110
110
110
111
111
111
111
111
111
111
111
111
111
111
111
112
112
112
112
113
113
113
113
114
114
114
114
114
114
114
114
114
114
114
114
115
115
115
115
115
115
115
115
115
115
115
115
116
116
116
116
117
117
117
117
117
117
117
117
117
117
117
117
118
118
118
118
119
119
119
119
120
120
120
120
121
121
121
121
121
121
121
121
121
121
121
121
122
122
122
122
123
123
123
123
124
124
124
124
124
124
124
124
124
124
124
124
125
125
125
125
125
125
125
125
125
125
125
125
126
126
126
126
126
126
126
126
126
126
126
126
127
127
127
127
128
128
128
128
129
129
129
129
129
129
129
129
129
129
129
129
130
130
130
130
130
130
130
130
130
130
130
130
131
131
131
131
132
132
132
132
132
132
132
132
132
132
132
132
133
133
133
133
134
134
134
134
135
135
135
135
136
136
136
136
136
136
136
136
136
136
136
136
137
137
137
137
137
137
137
137
137
137
137
137
138
138
138
138
139
139
139
139
140
140
140
140
141
141
141
141
142
142
142
142
143
143
143
143
144
144
144
144
145
145
145
145
146
146
146
146
146
146
146
146
146
146
146
146
147
147
147
147
147
147
147
147
147
147
147
147
148
148
148
148
149
149
149
149
150
150
150
150
151
151
151
151
152
152
152
152
152
152
152
152
152
152
152
152
153
153
153
153
153
153
153
153
153
153
153
153
154
154
154
154
155
155
155
155
156
156
156
156
156
156
156
156
156
156
156
156
157
157
157
157
157
157
157
157
157
157
157
157
158
158
158
158
158
158
158
158
158
158
158
158
159
159
159
159
159
159
159
159
159
159
159
159
160
160
160
160
160
160
160
160
160
160
160
160
161
161
161
161
161
161
161
161
161
161
161
161
162
162
162
162
163
163
163
163
164
164
164
164
165
165
165
165
166
166
166
166
167
167
167
167
168
168
168
168
168
168
168
168
168
168
168
168
169
169
169
169
169
169
169
169
169
169
169
169
170
170
170
170
170
170
170
170
170
170
170
170
171
171
171
171
171
171
171
171
171
171
171
171
172
172
172
172
173
173
173
173
174
174
174
174
175
175
175
175
176
176
176
176
177
177
177
177
178
178
178
178
179
179
179
179
180
180
180
180
181
181
181
181
182
182
182
182
183
183
183
183
184
184
184
184
185
185
185
185
186
186
186
186
187
187
187
187
188
188
188
188
189
189
189
189
190
190
190
190
191
191
191
191
192
192
192
192
193
193
193
193
194
194
194
194
195
195
195
195
196
196
196
196
197
197
197
197
198
198
198
198
199
199
199
199
200
200
200
200
201
201
201
201
202
202
202
202
203
203
203
203
204
204
204
204
205
205
205
205
206
206
206
206
207
207
207
207
208
208
208
208
209
209
209
209
210
210
210
210
211
211
211
211
212
212
212
212
213
213
213
213
214
214
214
214
215
215
215
215
216
216
216
216
217
217
217
217
218
218
218
218
219
219
219
219
220
220
220
220
221
221
221
221
222
222
222
222
223
223
223
223
224
224
224
224

