# vtk DataFile Version 4.1
Header:
ASCII

DATASET UNSTRUCTURED_GRID
POINTS 104 double
-0.4666666666666667 -0.47134695155275497 0
-0.47671450357451156 -0.4666666666666667 0
-0.33333333333333337 -0.49887474978799196 0
-0.4666666666666667 -0.47134695155275497 0
-0.19999999999999996 -0.4898082430988845 0
-0.33333333333333337 -0.49887474978799196 0
-0.13184964907842167 -0.4666666666666667 0
-0.19999999999999996 -0.4898082430988845 0
-0.6 -0.3979738692450173 0
-0.6699497152853324 -0.33333333333333337 0
-0.47671450357451156 -0.4666666666666667 0
-0.6 -0.3979738692450173 0
-0.13184964907842167 -0.4666666666666667 0
-0.06666666666666665 -0.4414203541362457 0
0.06666666666666665 -0.3394105685690958 0
-0.06666666666666665 -0.4414203541362457 0
0.19999999999999996 -0.38696540336930857 0
0.06666666666666665 -0.3394105685690958 0
0.33333333333333326 -0.39856917700981254 0
0.19999999999999996 -0.38696540336930857 0
0.46666666666666656 -0.3629850030998096 0
0.33333333333333326 -0.39856917700981254 0
0.5147416134522825 -0.33333333333333337 0
0.46666666666666656 -0.3629850030998096 0
-0.7333333333333334 -0.24365808834586816 0
-0.7578505240290425 -0.19999999999999996 0
-0.6699497152853324 -0.33333333333333337 0
-0.7333333333333334 -0.24365808834586816 0
0.5147416134522825 -0.33333333333333337 0
0.6000000000000001 -0.25983362594576925 0
0.6450648252823276 -0.19999999999999996 0
0.6000000000000001 -0.25983362594576925 0
-0.7578505240290426 -0.19999999999999996 0
-0.7954562897749748 -0.06666666666666665 0
-0.33333333333333337 -0.1451386115681483 0
-0.4291886275114557 -0.06666666666666665 0
-0.19999999999999996 -0.10510468829558106 0
-0.33333333333333337 -0.1451386115681483 0
-0.1675444475182103 -0.06666666666666665 0
-0.19999999999999996 -0.10510468829558106 0
0.33333333333333326 -0.09314592089441079 0
0.2589566664901201 -0.06666666666666665 0
0.3656783543061699 -0.06666666666666665 0
0.33333333333333326 -0.09314592089441079 0
0.6450648252823276 -0.19999999999999996 0
0.6942510853240708 -0.06666666666666665 0
-0.7954562897749748 -0.06666666666666665 0
-0.7954562897749748 0.06666666666666665 0
-0.4291886275114557 -0.06666666666666665 0
-0.4291886275114557 0.06666666666666665 0
-0.16754444751821032 -0.06666666666666665 0
-0.1675444475182103 0.06666666666666665 0
0.2589566664901201 -0.06666666666666665 0
0.2589566664901201 0.06666666666666665 0
0.3656783543061699 -0.06666666666666665 0
0.3656783543061699 0.06666666666666665 0
0.6942510853240708 -0.06666666666666665 0
0.6942510853240708 0.06666666666666665 0
-0.7954562897749748 0.06666666666666665 0
-0.7578505240290425 0.19999999999999996 0
-0.4291886275114557 0.06666666666666665 0
-0.33333333333333337 0.1451386115681483 0
-0.19999999999999996 0.10510468829558106 0
-0.33333333333333337 0.1451386115681483 0
-0.16754444751821032 0.06666666666666665 0
-0.19999999999999996 0.10510468829558106 0
0.2589566664901201 0.06666666666666665 0
0.33333333333333326 0.09314592089441079 0
0.3656783543061699 0.06666666666666665 0
0.33333333333333326 0.09314592089441079 0
0.6942510853240708 0.06666666666666665 0
0.6450648252823276 0.19999999999999996 0
-0.7578505240290426 0.19999999999999996 0
-0.7333333333333334 0.24365808834586813 0
-0.6699497152853324 0.33333333333333326 0
-0.7333333333333334 0.24365808834586813 0
0.6000000000000001 0.25983362594576925 0
0.5147416134522826 0.33333333333333326 0
0.6450648252823276 0.19999999999999996 0
0.6000000000000001 0.25983362594576925 0
-0.6699497152853324 0.33333333333333326 0
-0.6 0.3979738692450174 0
-0.47671450357451184 0.46666666666666656 0
-0.6 0.3979738692450174 0
-0.06666666666666665 0.44142035413624575 0
-0.13184964907842134 0.46666666666666656 0
0.06666666666666664 0.3394105685690958 0
-0.06666666666666665 0.44142035413624575 0
0.19999999999999996 0.3869654033693085 0
0.06666666666666665 0.33941056856909585 0
0.33333333333333326 0.3985691770098125 0
0.19999999999999996 0.38696540336930857 0
0.46666666666666656 0.3629850030998096 0
0.33333333333333326 0.39856917700981254 0
0.5147416134522826 0.33333333333333326 0
0.46666666666666656 0.3629850030998096 0
-0.4767145035745118 0.46666666666666656 0
-0.4666666666666667 0.471346951552755 0
-0.33333333333333337 0.49887474978799196 0
-0.4666666666666667 0.471346951552755 0
-0.19999999999999996 0.48980824309888454 0
-0.33333333333333337 0.49887474978799196 0
-0.13184964907842134 0.46666666666666656 0
-0.19999999999999996 0.48980824309888454 0

CELLS 52 156
2 0 1
2 2 3
2 4 5
2 6 7
2 8 9
2 10 11
2 12 13
2 14 15
2 16 17
2 18 19
2 20 21
2 22 23
2 24 25
2 26 27
2 28 29
2 30 31
2 32 33
2 34 35
2 36 37
2 38 39
2 40 41
2 42 43
2 44 45
2 46 47
2 48 49
2 50 51
2 52 53
2 54 55
2 56 57
2 58 59
2 60 61
2 62 63
2 64 65
2 66 67
2 68 69
2 70 71
2 72 73
2 74 75
2 76 77
2 78 79
2 80 81
2 82 83
2 84 85
2 86 87
2 88 89
2 90 91
2 92 93
2 94 95
2 96 97
2 98 99
2 100 101
2 102 103

CELL_TYPES 52
3
3
3
3
3
3
3
3
3
3
3
3
3
3
3
3
3
3
3
3
3
3
3
3
3
3
3
3
3
3
3
3
3
3
3
3
3
3
3
3
3
3
3
3
3
3
3
3
3
3
3
3


POINT_DATA 104
SCALARS elementID double 1
LOOKUP_TABLE default
48
48
49
49
50
50
51
51
62
62
63
63
66
66
67
67
68
68
69
69
70
70
71
71
76
76
77
77
86
86
87
87
91
91
94
94
95
95
96
96
99
99
100
100
102
102
106
106
109
109
111
111
114
114
115
115
117
117
121
121
124
124
125
125
126
126
129
129
130
130
132
132
136
136
137
137
146
146
147
147
152
152
153
153
156
156
157
157
158
158
159
159
160
160
161
161
168
168
169
169
170
170
171
171

SCALARS lsm_geometryID double 1
LOOKUP_TABLE default
1
1
1
1
1
1
1
1
1
1
1
1
1
1
1
1
1
1
1
1
1
1
1
1
1
1
1
1
1
1
1
1
1
1
2
2
2
2
2
2
4
4
4
4
1
1
1
1
2
2
2
2
4
4
4
4
1
1
1
1
2
2
2
2
2
2
4
4
4
4
1
1
1
1
1
1
1
1
1
1
1
1
1
1
1
1
1
1
1
1
1
1
1
1
1
1
1
1
1
1
1
1
1
1

