# vtk DataFile Version 4.1
Header:
ASCII

DATASET UNSTRUCTURED_GRID
POINTS 8 double
10.503905801126013 -1.896859914037748E-15 17.553703198696123
7.427383020920916 7.427383020920914 17.553703198696123
1.2054282287140809E-15 10.503905801126006 17.553703198696123
-7.427383020920913 7.4273830209209155 17.553703198696123
-10.503905801126013 7.920815517857335E-16 17.553703198696123
-7.4273830209209155 -7.427383020920912 17.553703198696123
2.0947007510693926E-16 -10.50390580112601 17.553703198696123
7.42738302092092 -7.427383020920922 17.55370319869612


POINT_DATA 8
VECTORS normals double
-0.8660254037844385 2.4961747104653473E-17 0.5000000000000003
-0.6123724356957945 -0.6123724356957944 0.5000000000000001
0 -0.8660254037844385 0.5
0.6123724356957944 -0.6123724356957945 0.5
0.8660254037844385 -9.984698841861393E-17 0.5000000000000003
0.6123724356957945 0.6123724356957944 0.5
2.1217485038955455E-16 0.8660254037844385 0.5000000000000002
-0.6123724356957942 0.6123724356957944 0.5000000000000004

