# vtk DataFile Version 4.1
Header:
ASCII

DATASET UNSTRUCTURED_GRID
POINTS 113 double
0 0 0
0.2 0 0
0.14142135623730953 0.14142135623730953 0
1.2246467991473533E-17 0.2 0
-0.1414213562373095 0.14142135623730953 0
-0.2 2.4492935982947065E-17 0
-0.14142135623730953 -0.1414213562373095 0
-3.6739403974420595E-17 -0.2 0
0.14142135623730948 -0.14142135623730953 0
0.11380711874576983 0.047140452079103175 0
0.047140452079103175 0.11380711874576983 0
-0.04714045207910317 0.11380711874576983 0
-0.11380711874576983 0.04714045207910319 0
-0.11380711874576983 -0.04714045207910316 0
-0.04714045207910319 -0.11380711874576983 0
0.04714045207910315 -0.11380711874576983 0
0.11380711874576983 -0.047140452079103175 0
0.29659258262890686 -2.3220985052321563E-17 0.025881904510252074
0.20972262642653144 0.20972262642653144 0.025881904510252074
1.6116632166860462E-17 0.29659258262890686 0.025881904510252074
-0.20972262642653144 0.20972262642653144 0.025881904510252074
-0.29659258262890686 3.223326433372092E-17 0.025881904510252074
-0.20972262642653147 -0.20972262642653144 0.025881904510252074
-4.8349896500581376E-17 -0.29659258262890686 0.025881904510252074
0.20972262642653142 -0.20972262642653144 0.025881904510252074
0.21193414132318694 0.08778599566596024 0.012940952255126037
0.08778599566596024 0.21193414132318694 0.012940952255126037
-0.08778599566596024 0.21193414132318694 0.012940952255126037
-0.21193414132318694 0.08778599566596026 0.012940952255126037
-0.21193414132318697 -0.08778599566596022 0.012940952255126037
-0.08778599566596028 -0.21193414132318694 0.012940952255126037
0.08778599566596021 -0.21193414132318694 0.012940952255126037
0.21193414132318694 -0.08778599566596024 0.012940952255126037
0.38319512300735076 -2.6329378425111743E-17 0.07588190451025206
0.27095986999611094 0.2709598699961109 0.07588190451025208
1.2571255522494921E-17 0.38319512300735076 0.07588190451025206
-0.2709598699961109 0.27095986999611094 0.07588190451025208
-0.38319512300735076 3.505033552546086E-17 0.07588190451025206
-0.27095986999611094 -0.2709598699961109 0.07588190451025208
-4.4804519856215834E-17 -0.38319512300735076 0.07588190451025206
0.2709598699961109 -0.27095986999611094 0.07588190451025206
0.290117550514725 0.12017062410566057 0.05088190451025207
0.1201706241056606 0.290117550514725 0.05088190451025207
-0.12017062410566057 0.290117550514725 0.05088190451025207
-0.290117550514725 0.12017062410566061 0.05088190451025207
-0.290117550514725 -0.12017062410566057 0.05088190451025207
-0.12017062410566064 -0.290117550514725 0.05088190451025207
0.12017062410566054 -0.290117550514725 0.05088190451025207
0.290117550514725 -0.1201706241056606 0.05088190451025207
0.45390580112600554 -3.7644299870124833E-17 0.14659258262890681
0.3209598699961109 0.3209598699961109 0.14659258262890681
2.221032234010097E-17 0.45390580112600554 0.14659258262890681
-0.3209598699961109 0.3209598699961109 0.14659258262890684
-0.45390580112600554 3.716571822324005E-17 0.14659258262890681
-0.3209598699961109 -0.32095986999611087 0.14659258262890684
-4.524404792658798E-17 -0.45390580112600554 0.14659258262890681
0.32095986999611087 -0.320959869996111 0.1465925826289068
0.3572551660313945 0.14797993499805545 0.11123724356957945
0.14797993499805545 0.3572551660313945 0.11123724356957945
-0.14797993499805545 0.3572551660313945 0.11123724356957945
-0.3572551660313945 0.14797993499805548 0.11123724356957945
-0.3572551660313945 -0.1479799349980554 0.11123724356957945
-0.14797993499805548 -0.3572551660313945 0.11123724356957945
0.1479799349980554 -0.3572551660313945 0.11123724356957944
0.3572551660313945 -0.14797993499805548 0.11123724356957942
0.5039058011260056 -4.272275194780502E-17 0.23319512300735068
0.35631520905543834 0.35631520905543834 0.23319512300735068
2.5891335400615433E-17 0.5039058011260056 0.23319512300735068
-0.3563152090554383 0.35631520905543834 0.2331951230073507
-0.5039058011260056 3.467661498025079E-17 0.23319512300735068
-0.35631520905543834 -0.35631520905543823 0.2331951230073507
-4.705254534303474E-17 -0.5039058011260056 0.23319512300735068
0.3563152090554383 -0.3563152090554384 0.23319512300735062
0.4087716703258901 0.1693187697628873 0.18989385281812873
0.16931876976288732 0.4087716703258901 0.18989385281812873
-0.1693187697628873 0.4087716703258901 0.18989385281812876
-0.40877167032589007 0.16931876976288734 0.18989385281812876
-0.4087716703258901 -0.16931876976288723 0.18989385281812876
-0.16931876976288734 -0.40877167032589007 0.18989385281812876
0.16931876976288726 -0.4087716703258901 0.1898938528181287
0.40877167032589007 -0.16931876976288734 0.18989385281812873
0.5297877056362577 -5.1031489244558297E-17 0.32978770563625753
0.3746164792446603 0.3746164792446603 0.3297877056362575
3.158806114217668E-17 0.5297877056362577 0.3297877056362575
-0.37461647924466024 0.3746164792446603 0.32978770563625753
-0.5297877056362577 3.575036970746026E-17 0.32978770563625753
-0.3746164792446603 -0.3746164792446602 0.32978770563625753
-4.0322147005175377E-17 -0.5297877056362577 0.3297877056362575
0.37461647924466024 -0.3746164792446604 0.3297877056362575
0.4411562987655904 0.18273292207502462 0.2814914143218041
0.18273292207502467 0.4411562987655905 0.2814914143218041
-0.18273292207502462 0.4411562987655904 0.2814914143218041
-0.4411562987655904 0.18273292207502467 0.2814914143218041
-0.4411562987655904 -0.18273292207502456 0.2814914143218041
-0.18273292207502467 -0.4411562987655904 0.2814914143218041
0.18273292207502462 -0.44115629876559054 0.2814914143218041
0.4411562987655904 -0.18273292207502473 0.2814914143218041
0.5297877056362577 -5.17988656211414E-17 0.4297877056362575
0.37461647924466035 0.37461647924466035 0.4297877056362575
4.130209702754654E-17 0.5297877056362577 0.42978770563625746
-0.37461647924466024 0.37461647924466035 0.42978770563625757
-0.5297877056362577 3.712440761260116E-17 0.42978770563625757
-0.3746164792446603 -0.37461647924466024 0.4297877056362575
-3.116156362200822E-17 -0.5297877056362577 0.4297877056362575
0.37461647924466024 -0.37461647924466046 0.42978770563625746
0.45220209244045895 0.18730823962233012 0.3797877056362575
0.18730823962233017 0.45220209244045895 0.3797877056362575
-0.1873082396223301 0.45220209244045895 0.3797877056362575
-0.45220209244045895 0.18730823962233017 0.3797877056362575
-0.45220209244045895 -0.18730823962233006 0.3797877056362575
-0.18730823962233017 -0.45220209244045895 0.3797877056362575
0.1873082396223301 -0.45220209244045906 0.3797877056362575
0.45220209244045895 -0.18730823962233023 0.3797877056362575


POINT_DATA 113
VECTORS normals double
0 0 1
-0.11921115926269929 9.452181581186321E-18 0.9928689236285138
-0.08429501910776417 -0.08429501910776417 0.9928689236285138
0 -0.11921115926269926 0.9928689236285138
0.08429501910776417 -0.0842950191077642 0.9928689236285138
0.11921115926269928 -1.7328999565508252E-17 0.9928689236285138
0.08429501910776417 0.08429501910776416 0.9928689236285138
6.301454387457546E-18 0.11921115926269928 0.9928689236285138
-0.08429501910776417 0.08429501910776419 0.9928689236285138
0 0 1
0 0 1
0 0 0.9999999999999999
0 0 1
0 0 1
0 0 1
0 0 1
0 0 1
-0.3920936305272496 3.6652552255977217E-17 0.9199253148489612
-0.2772520650058711 -0.2772520650058711 0.9199253148489613
-1.5708236681133094E-17 -0.3920936305272496 0.9199253148489612
0.2772520650058711 -0.2772520650058711 0.9199253148489613
0.39209363052724977 -3.665255225597723E-17 0.9199253148489613
0.2772520650058711 0.277252065005871 0.9199253148489613
1.5708236681133094E-17 0.3920936305272496 0.9199253148489612
-0.2772520650058709 0.27725206500587096 0.9199253148489612
-0.25734441421507176 -0.10659554656884222 0.9604224288946981
-0.10659554656884221 -0.25734441421507165 0.9604224288946981
0.10659554656884222 -0.2573444142150717 0.9604224288946981
0.25734441421507165 -0.10659554656884222 0.9604224288946981
0.2573444142150717 0.10659554656884218 0.9604224288946983
0.10659554656884222 0.25734441421507165 0.9604224288946983
-0.10659554656884222 0.2573444142150717 0.9604224288946981
-0.25734441421507165 0.10659554656884226 0.9604224288946983
-0.6141350275345775 -8.113606675386687E-18 0.7892009680398927
-0.4342590425338869 -0.4342590425338868 0.7892009680398926
-4.868164005232014E-17 -0.6141350275345777 0.7892009680398927
0.43425904253388675 -0.43425904253388686 0.7892009680398925
0.6141350275345775 -7.302246007848019E-17 0.7892009680398926
0.43425904253388703 0.4342590425338868 0.7892009680398924
8.92496734292536E-17 0.6141350275345777 0.7892009680398927
-0.4342590425338867 0.43425904253388686 0.7892009680398926
-0.4896097780374764 -0.20280301033360348 0.8480290114434301
-0.20280301033360357 -0.4896097780374764 0.8480290114434301
0.20280301033360348 -0.4896097780374764 0.8480290114434301
0.48960977803747646 -0.2028030103336036 0.8480290114434301
0.4896097780374765 0.20280301033360348 0.8480290114434301
0.2028030103336036 0.48960977803747646 0.8480290114434301
-0.20280301033360343 0.4896097780374763 0.8480290114434302
-0.4896097780374764 0.2028030103336036 0.8480290114434302
-0.7960251079405882 7.538648922501712E-17 0.6052636016878716
-0.5628747518195435 -0.5628747518195434 0.6052636016878717
6.167985482046856E-17 -0.7960251079405881 0.6052636016878716
0.5628747518195436 -0.5628747518195436 0.6052636016878715
0.7960251079405885 -4.1119903213645713E-17 0.6052636016878715
0.5628747518195437 0.5628747518195435 0.6052636016878714
1.9874619886595434E-16 0.7960251079405883 0.6052636016878717
-0.5628747518195434 0.5628747518195435 0.6052636016878719
-0.6785983445458468 -0.2810846377148202 0.6785983445458471
-0.2810846377148203 -0.6785983445458467 0.6785983445458473
0.2810846377148203 -0.6785983445458469 0.6785983445458469
0.6785983445458468 -0.2810846377148204 0.6785983445458473
0.6785983445458469 0.2810846377148203 0.6785983445458469
0.28108463771482045 0.6785983445458468 0.6785983445458469
-0.28108463771482006 0.6785983445458467 0.6785983445458473
-0.6785983445458469 0.28108463771482034 0.6785983445458473
-0.9248307141379231 6.17507289223995E-17 0.380378956025618
-0.6539540694165229 -0.6539540694165229 0.38037895602561816
2.4700291568959812E-17 -0.9248307141379232 0.38037895602561794
0.6539540694165228 -0.6539540694165228 0.380378956025618
0.9248307141379232 -6.175072892239953E-17 0.38037895602561805
0.6539540694165229 0.6539540694165228 0.38037895602561794
1.852521867671985E-16 0.9248307141379231 0.3803789560256182
-0.6539540694165227 0.6539540694165228 0.38037895602561844
-0.81516454681157 -0.3376522108550701 0.47063547053549964
-0.3376522108550701 -0.81516454681157 0.4706354705354996
0.3376522108550701 -0.8151645468115699 0.4706354705354995
0.8151645468115699 -0.3376522108550702 0.4706354705354994
0.8151645468115698 0.3376522108550701 0.4706354705354996
0.3376522108550703 0.8151645468115699 0.4706354705354994
-0.33765221085506986 0.8151645468115699 0.47063547053549976
-0.8151645468115699 0.3376522108550701 0.47063547053549964
-0.9915501193397667 4.699318634076455E-17 0.12972417213956242
-0.7011318132714794 -0.7011318132714792 0.12972417213956258
4.1119038048168994E-17 -0.9915501193397667 0.12972417213956233
0.7011318132714792 -0.7011318132714796 0.12972417213956258
0.9915501193397666 -3.5244889755573416E-17 0.12972417213956242
0.7011318132714794 0.7011318132714792 0.12972417213956258
2.8783326633718287E-16 0.9915501193397666 0.12972417213956242
-0.7011318132714793 0.7011318132714794 0.12972417213956264
-0.8968088177445293 -0.37147037516556514 0.24029919847975664
-0.3714703751655653 -0.8968088177445294 0.24029919847975673
0.3714703751655653 -0.8968088177445293 0.24029919847975667
0.8968088177445294 -0.3714703751655654 0.24029919847975667
0.8968088177445293 0.37147037516556536 0.24029919847975661
0.3714703751655656 0.8968088177445293 0.24029919847975667
-0.37147037516556525 0.8968088177445296 0.24029919847975703
-0.8968088177445294 0.3714703751655653 0.24029919847975675
-1 2.3153325762317406E-17 3.704532121970785E-16
-0.7071067811865477 -0.7071067811865475 1.0408162360158313E-15
4.6306651524634824E-17 -1 6.945997728695224E-16
0.7071067811865476 -0.7071067811865477 6.13021421057185E-16
1 -1.0418996593042829E-16 3.2414656067244355E-16
0.7071067811865477 0.7071067811865475 4.741014664832807E-16
3.588765493159198E-16 1 9.261330304926961E-17
-0.7071067811865475 0.7071067811865476 3.351815119093764E-16
-0.923879532511287 -0.38268343236508967 3.5171495052773675E-16
-0.3826834323650898 -0.9238795325112867 4.473061427043164E-16
0.3826834323650897 -0.9238795325112868 3.328293774486304E-16
0.9238795325112867 -0.38268343236508995 1.827678512618639E-16
0.9238795325112867 0.38268343236508984 1.8013874355316869E-16
0.38268343236509 0.9238795325112868 3.3335887020661536E-16
-0.38268343236508956 0.923879532511287 3.5088688766430044E-16
-0.9238795325112867 0.3826834323650899 9.662391784629777E-17

