# vtk DataFile Version 4.1
Header:
ASCII

DATASET UNSTRUCTURED_GRID
POINTS 8 double
20.2 -4.80802654206542E-15 0
14.283556979968258 14.283556979968258 0
8.135842250023771E-16 20.2 0
-14.283556979968258 14.283556979968258 0
-20.2 1.627168450004754E-15 0
-14.28355697996826 -14.283556979968258 0
-2.440752675007131E-15 -20.2 0
14.28355697996826 -14.283556979968258 0


POINT_DATA 8
VECTORS normals double
0 0 1
0 0 1
0 0 1
0 0 1
0 0 1
0 0 1
0 0 1
0 0 1

