# vtk DataFile Version 4.1
Header:
ASCII

DATASET UNSTRUCTURED_GRID
POINTS 40 double
0.1 0 0
0.15690355937288492 0.023570226039551587 0
0.05690355937288492 0.023570226039551587 0
0.17071067811865476 0.07071067811865477 0
0.1276142374915397 0.09428090415820635 0
0.07071067811865477 0.07071067811865477 0
0.09428090415820635 0.1276142374915397 0
0.023570226039551587 0.05690355937288492 0
0.07071067811865477 0.17071067811865476 0
0.023570226039551594 0.15690355937288492 0
6.123233995736766E-18 0.1 0
-0.023570226039551577 0.15690355937288492 0
-0.023570226039551584 0.05690355937288492 0
-0.07071067811865475 0.17071067811865476 0
-0.09428090415820634 0.1276142374915397 0
-0.07071067811865475 0.07071067811865477 0
-0.12761423749153966 0.09428090415820636 0
-0.05690355937288492 0.023570226039551594 0
-0.17071067811865476 0.07071067811865478 0
-0.15690355937288492 0.023570226039551608 0
-0.1 1.2246467991473533E-17 0
-0.15690355937288492 -0.023570226039551567 0
-0.05690355937288492 -0.02357022603955158 0
-0.17071067811865476 -0.07071067811865474 0
-0.1276142374915397 -0.09428090415820634 0
-0.07071067811865477 -0.07071067811865475 0
-0.09428090415820636 -0.12761423749153966 0
-0.023570226039551594 -0.05690355937288492 0
-0.07071067811865478 -0.17071067811865476 0
-0.02357022603955161 -0.15690355937288492 0
-1.8369701987210297E-17 -0.1 0
0.023570226039551556 -0.15690355937288492 0
0.023570226039551573 -0.05690355937288492 0
0.07071067811865472 -0.17071067811865476 0
0.09428090415820631 -0.1276142374915397 0
0.07071067811865474 -0.07071067811865477 0
0.12761423749153966 -0.09428090415820635 0
0.05690355937288492 -0.023570226039551587 0
0.17071067811865476 -0.07071067811865477 0
0.15690355937288492 -0.023570226039551587 0


POINT_DATA 40
VECTORS normals double
0 0 1
0 0 1
0 0 1
0 0 1
0 0 1
0 0 1
0 0 1
0 0 1
0 0 1
0 0 1
0 0 1
0 0 1
0 0 1
0 0 1
0 0 0.9999999999999999
0 0 0.9999999999999999
0 0 1
0 0 1
0 0 1
0 0 1
0 0 1
0 0 1
0 0 1
0 0 1
0 0 1
0 0 0.9999999999999999
0 0 1
0 0 1
0 0 1
0 0 1
0 0 1
0 0 1
0 0 1
0 0 1
0 0 1
0 0 1
0 0 1
0 0 1
0 0 1
0 0 1

