# vtk DataFile Version 4.1
Header:
ASCII

DATASET UNSTRUCTURED_GRID
POINTS 216 double
0.1046023729152566 0.015713484026367724 0
0.1517428249943598 0.0628539361054709 0
0.08507615832769312 0.0628539361054709 0
0.0628539361054709 0.08507615832769312 0
0.0628539361054709 0.1517428249943598 0
0.01571348402636773 0.1046023729152566 0
-0.015713484026367717 0.1046023729152566 0
-0.0628539361054709 0.1517428249943598 0
-0.0628539361054709 0.08507615832769312 0
-0.08507615832769311 0.06285393610547091 0
-0.1517428249943598 0.06285393610547092 0
-0.1046023729152566 0.015713484026367738 0
-0.1046023729152566 -0.01571348402636771 0
-0.1517428249943598 -0.06285393610547088 0
-0.08507615832769312 -0.0628539361054709 0
-0.06285393610547091 -0.08507615832769311 0
-0.06285393610547092 -0.1517428249943598 0
-0.01571348402636774 -0.1046023729152566 0
0.015713484026367703 -0.1046023729152566 0
0.06285393610547087 -0.1517428249943598 0
0.06285393610547087 -0.08507615832769312 0
0.08507615832769311 -0.0628539361054709 0
0.1517428249943598 -0.0628539361054709 0
0.1046023729152566 -0.015713484026367724 0
0.18445183252016548 0.07640245063442326 0.004313650751708679
0.23617557465069794 0.02926199855532007 0.012940952255126037
0.23941645012620846 0.09916954069749721 0.021568253758543394
0.18769270799567597 0.1463099927766004 0.012940952255126037
0.07640245063442326 0.18445183252016548 0.004313650751708679
0.1463099927766004 0.18769270799567597 0.012940952255126037
0.09916954069749724 0.23941645012620846 0.021568253758543394
0.02926199855532009 0.23617557465069794 0.012940952255126037
-0.07640245063442325 0.18445183252016548 0.004313650751708679
-0.02926199855532007 0.23617557465069794 0.012940952255126037
-0.09916954069749721 0.23941645012620846 0.021568253758543394
-0.1463099927766004 0.18769270799567597 0.012940952255126037
-0.18445183252016548 0.07640245063442327 0.004313650751708679
-0.18769270799567597 0.1463099927766004 0.012940952255126037
-0.23941645012620846 0.09916954069749724 0.021568253758543394
-0.23617557465069794 0.029261998555320107 0.012940952255126037
-0.1844518325201655 -0.07640245063442323 0.004313650751708679
-0.23617557465069794 -0.029261998555320055 0.012940952255126037
-0.23941645012620846 -0.09916954069749721 0.021568253758543394
-0.18769270799567597 -0.1463099927766004 0.012940952255126037
-0.07640245063442329 -0.18445183252016548 0.004313650751708679
-0.14630999277660042 -0.18769270799567597 0.012940952255126037
-0.09916954069749727 -0.23941645012620846 0.021568253758543394
-0.02926199855532012 -0.23617557465069794 0.012940952255126037
0.07640245063442322 -0.18445183252016548 0.004313650751708679
0.02926199855532004 -0.23617557465069794 0.012940952255126037
0.09916954069749719 -0.23941645012620846 0.021568253758543394
0.14630999277660037 -0.18769270799567597 0.012940952255126037
0.18445183252016548 -0.07640245063442326 0.004313650751708679
0.18769270799567594 -0.1463099927766004 0.012940952255126037
0.23941645012620838 -0.09916954069749724 0.021568253758543394
0.23617557465069794 -0.02926199855532009 0.012940952255126037
0.26547758652338777 0.109964416844064 0.034215237843585405
0.3233017520503275 0.04005687470188684 0.05088190451025207
0.3147575145060622 0.13037683136725717 0.06754857117691873
0.25693334897912246 0.2002843735094343 0.050881904510252075
0.10996441684406404 0.26547758652338777 0.034215237843585405
0.20028437350943432 0.2569333489791224 0.050881904510252075
0.13037683136725717 0.3147575145060622 0.06754857117691873
0.040056874701886874 0.3233017520503275 0.05088190451025207
-0.109964416844064 0.26547758652338777 0.034215237843585405
-0.040056874701886847 0.3233017520503275 0.05088190451025207
-0.13037683136725717 0.3147575145060622 0.06754857117691873
-0.2002843735094343 0.25693334897912246 0.050881904510252075
-0.26547758652338777 0.10996441684406404 0.034215237843585405
-0.2569333489791224 0.20028437350943432 0.050881904510252075
-0.3147575145060622 0.1303768313672572 0.06754857117691873
-0.3233017520503275 0.040056874701886895 0.05088190451025207
-0.26547758652338777 -0.109964416844064 0.034215237843585405
-0.3233017520503275 -0.04005687470188683 0.05088190451025207
-0.3147575145060622 -0.1303768313672571 0.06754857117691873
-0.25693334897912246 -0.2002843735094343 0.050881904510252075
-0.10996441684406405 -0.26547758652338777 0.034215237843585405
-0.20028437350943432 -0.2569333489791224 0.050881904510252075
-0.13037683136725722 -0.3147575145060622 0.06754857117691873
-0.04005687470188691 -0.3233017520503275 0.05088190451025207
0.10996441684406395 -0.26547758652338777 0.034215237843585405
0.04005687470188681 -0.3233017520503275 0.05088190451025207
0.1303768313672571 -0.3147575145060622 0.06754857117691873
0.20028437350943426 -0.25693334897912246 0.05088190451025207
0.26547758652338777 -0.10996441684406404 0.034215237843585405
0.2569333489791224 -0.20028437350943432 0.05088190451025207
0.3147575145060622 -0.13037683136725717 0.06754857117691873
0.3233017520503275 -0.04005687470188688 0.05088190451025207
0.33713671967828535 0.13964660166472212 0.08766701753002785
0.39811869672158356 0.0493266449993518 0.11123724356957944
0.3773736123845037 0.15631326833138878 0.13480746960913104
0.31639163534120546 0.2466332249967591 0.11123724356957947
0.13964660166472212 0.33713671967828535 0.08766701753002785
0.2466332249967591 0.31639163534120546 0.11123724356957947
0.15631326833138878 0.3773736123845037 0.13480746960913104
0.049326644999351826 0.39811869672158356 0.11123724356957944
-0.13964660166472212 0.33713671967828535 0.08766701753002785
-0.049326644999351806 0.39811869672158356 0.11123724356957944
-0.15631326833138878 0.3773736123845037 0.13480746960913104
-0.2466332249967591 0.31639163534120546 0.11123724356957947
-0.33713671967828535 0.13964660166472218 0.08766701753002785
-0.31639163534120546 0.2466332249967591 0.11123724356957947
-0.3773736123845037 0.1563132683313888 0.13480746960913104
-0.39811869672158356 0.049326644999351854 0.11123724356957944
-0.33713671967828535 -0.13964660166472206 0.08766701753002785
-0.39811869672158356 -0.04932664499935177 0.11123724356957944
-0.3773736123845037 -0.15631326833138873 0.13480746960913104
-0.31639163534120546 -0.24663322499675908 0.11123724356957947
-0.13964660166472218 -0.33713671967828535 0.08766701753002785
-0.2466332249967591 -0.31639163534120546 0.11123724356957947
-0.1563132683313888 -0.3773736123845037 0.13480746960913104
-0.049326644999351854 -0.39811869672158356 0.11123724356957944
0.13964660166472206 -0.33713671967828535 0.08766701753002785
0.04932664499935177 -0.39811869672158356 0.11123724356957944
0.15631326833138873 -0.3773736123845037 0.134807469609131
0.24663322499675908 -0.31639163534120546 0.11123724356957942
0.33713671967828535 -0.13964660166472212 0.08766701753002785
0.31639163534120546 -0.24663322499675913 0.11123724356957942
0.3773736123845037 -0.15631326833138884 0.134807469609131
0.39811869672158356 -0.04932664499935185 0.11123724356957942
0.39454578048266886 0.16342621325299939 0.16102633935864744
0.4555277575259671 0.0564395899209624 0.18989385281812876
0.42299756016911133 0.17521132627277516 0.21876136627761003
0.3620155831258131 0.2821979496048122 0.18989385281812876
0.1634262132529994 0.39454578048266886 0.16102633935864744
0.2821979496048122 0.3620155831258131 0.18989385281812876
0.17521132627277522 0.42299756016911133 0.21876136627761003
0.05643958992096246 0.4555277575259671 0.18989385281812876
-0.1634262132529994 0.39454578048266886 0.1610263393586475
-0.05643958992096241 0.4555277575259671 0.18989385281812876
-0.17521132627277516 0.42299756016911133 0.21876136627761003
-0.28219794960481215 0.3620155831258131 0.18989385281812876
-0.39454578048266886 0.16342621325299944 0.1610263393586475
-0.3620155831258131 0.2821979496048122 0.18989385281812876
-0.42299756016911133 0.17521132627277525 0.21876136627761003
-0.4555277575259671 0.05643958992096248 0.18989385281812876
-0.39454578048266886 -0.16342621325299936 0.1610263393586475
-0.4555277575259671 -0.05643958992096238 0.18989385281812876
-0.42299756016911133 -0.17521132627277514 0.21876136627761003
-0.3620155831258131 -0.28219794960481215 0.18989385281812876
-0.16342621325299944 -0.39454578048266886 0.1610263393586475
-0.2821979496048122 -0.3620155831258131 0.18989385281812876
-0.17521132627277525 -0.42299756016911133 0.21876136627761003
-0.05643958992096248 -0.4555277575259671 0.18989385281812876
0.16342621325299936 -0.39454578048266886 0.16102633935864744
0.056439589920962395 -0.4555277575259671 0.18989385281812873
0.17521132627277516 -0.4229975601691114 0.21876136627761
0.28219794960481215 -0.36201558312581317 0.18989385281812873
0.39454578048266886 -0.16342621325299947 0.16102633935864744
0.3620155831258131 -0.2821979496048122 0.18989385281812873
0.42299756016911133 -0.17521132627277525 0.21876136627761
0.4555277575259671 -0.05643958992096248 0.18989385281812876
0.43379243631567815 0.17968271037682096 0.24929388677883516
0.49161660184261785 0.060910974025008176 0.28149141432180413
0.44852016121550276 0.1857831337732283 0.31368894186477303
0.390695995688563 0.3045548701250411 0.2814914143218041
0.17968271037682101 0.43379243631567815 0.24929388677883516
0.3045548701250411 0.390695995688563 0.2814914143218041
0.18578313377322833 0.4485201612155028 0.31368894186477303
0.060910974025008245 0.49161660184261785 0.2814914143218041
-0.17968271037682096 0.43379243631567815 0.24929388677883516
-0.06091097402500819 0.49161660184261785 0.2814914143218041
-0.18578313377322828 0.44852016121550276 0.31368894186477303
-0.30455487012504107 0.390695995688563 0.28149141432180413
-0.43379243631567804 0.17968271037682104 0.24929388677883516
-0.39069599568856295 0.3045548701250411 0.28149141432180413
-0.44852016121550276 0.18578313377322833 0.31368894186477303
-0.49161660184261785 0.06091097402500825 0.28149141432180413
-0.43379243631567815 -0.1796827103768209 0.24929388677883516
-0.49161660184261785 -0.06091097402500816 0.28149141432180413
-0.44852016121550276 -0.18578313377322822 0.31368894186477303
-0.390695995688563 -0.304554870125041 0.28149141432180413
-0.17968271037682104 -0.43379243631567804 0.24929388677883516
-0.3045548701250411 -0.39069599568856295 0.28149141432180413
-0.18578313377322833 -0.44852016121550276 0.31368894186477303
-0.06091097402500825 -0.49161660184261785 0.2814914143218041
0.17968271037682096 -0.4337924363156782 0.24929388677883513
0.060910974025008176 -0.49161660184261796 0.2814914143218041
0.18578313377322828 -0.4485201612155029 0.31368894186477303
0.30455487012504107 -0.3906959956885631 0.2814914143218041
0.43379243631567804 -0.17968271037682104 0.24929388677883513
0.39069599568856295 -0.3045548701250412 0.2814914143218041
0.44852016121550276 -0.1857831337732284 0.31368894186477303
0.49161660184261785 -0.06091097402500827 0.28149141432180413
0.4522020924404589 0.18730823962233012 0.34645437230292414
0.5039258345709915 0.062436079874110005 0.3797877056362575
0.452202092440459 0.18730823962233015 0.4131210389695908
0.4004783503099265 0.31218039937055025 0.3797877056362575
0.18730823962233015 0.4522020924404589 0.34645437230292414
0.3121803993705503 0.4004783503099265 0.3797877056362575
0.1873082396223302 0.452202092440459 0.4131210389695908
0.06243607987411009 0.5039258345709915 0.37978770563625747
-0.1873082396223301 0.4522020924404589 0.34645437230292414
-0.062436079874110005 0.5039258345709915 0.37978770563625747
-0.1873082396223301 0.452202092440459 0.4131210389695908
-0.3121803993705502 0.4004783503099265 0.3797877056362575
-0.4522020924404589 0.18730823962233015 0.34645437230292425
-0.4004783503099265 0.3121803993705503 0.3797877056362575
-0.4522020924404589 0.1873082396223302 0.4131210389695909
-0.5039258345709915 0.06243607987411009 0.3797877056362575
-0.4522020924404589 -0.1873082396223301 0.34645437230292425
-0.5039258345709915 -0.06243607987410999 0.3797877056362575
-0.4522020924404589 -0.1873082396223301 0.4131210389695909
-0.4004783503099265 -0.31218039937055014 0.3797877056362575
-0.18730823962233015 -0.4522020924404589 0.34645437230292414
-0.31218039937055025 -0.4004783503099265 0.3797877056362575
-0.18730823962233015 -0.4522020924404589 0.4131210389695908
-0.06243607987411009 -0.5039258345709915 0.3797877056362575
0.1873082396223301 -0.45220209244045906 0.34645437230292414
0.062436079874110005 -0.5039258345709915 0.3797877056362575
0.1873082396223301 -0.45220209244045906 0.4131210389695908
0.3121803993705502 -0.4004783503099267 0.37978770563625747
0.4522020924404589 -0.18730823962233023 0.34645437230292414
0.4004783503099265 -0.31218039937055037 0.37978770563625747
0.4522020924404589 -0.18730823962233023 0.4131210389695908
0.5039258345709915 -0.062436079874110116 0.3797877056362575


POINT_DATA 216
VECTORS normals double
0 0 1
0 0 1
0 0 1
0 0 1
0 0 1
0 0 1
0 -0 1
0 0 1
0 0 0.9999999999999999
0 0 1
0 0 1
-0 0 1
0 0 1
0 0 1
0 0 0.9999999999999999
0 0 1
-0 0 1
0 -0 1
0 0 1
0 0 1
0 0 1
0 0 1
0 -0 1
0 0 1
-0.2573444142150718 -0.10659554656884221 0.960422428894698
-0.2573444142150716 -0.10659554656884224 0.960422428894698
-0.25734441421507165 -0.10659554656884221 0.9604224288946983
-0.25734441421507187 -0.1065955465688422 0.9604224288946981
-0.10659554656884221 -0.2573444142150718 0.960422428894698
-0.1065955465688422 -0.2573444142150718 0.9604224288946981
-0.10659554656884222 -0.2573444142150716 0.9604224288946983
-0.1065955465688423 -0.2573444142150717 0.9604224288946983
0.10659554656884221 -0.25734441421507176 0.960422428894698
0.10659554656884226 -0.2573444142150717 0.9604224288946984
0.10659554656884221 -0.25734441421507165 0.9604224288946983
0.1065955465688422 -0.2573444142150718 0.9604224288946981
0.2573444142150717 -0.10659554656884224 0.960422428894698
0.2573444142150717 -0.10659554656884222 0.9604224288946981
0.25734441421507165 -0.10659554656884224 0.9604224288946983
0.25734441421507165 -0.10659554656884228 0.9604224288946983
0.2573444142150717 0.10659554656884215 0.9604224288946982
0.2573444142150717 0.10659554656884218 0.9604224288946984
0.25734441421507165 0.10659554656884217 0.960422428894698
0.2573444142150717 0.10659554656884218 0.9604224288946981
0.10659554656884224 0.2573444142150717 0.960422428894698
0.10659554656884222 0.2573444142150717 0.9604224288946981
0.10659554656884222 0.2573444142150716 0.9604224288946983
0.10659554656884226 0.25734441421507165 0.9604224288946984
-0.10659554656884221 0.25734441421507176 0.960422428894698
-0.10659554656884226 0.2573444142150717 0.9604224288946984
-0.10659554656884221 0.25734441421507165 0.9604224288946983
-0.1065955465688422 0.2573444142150718 0.9604224288946981
-0.25734441421507165 0.10659554656884224 0.960422428894698
-0.2573444142150716 0.10659554656884222 0.960422428894698
-0.25734441421507165 0.10659554656884226 0.9604224288946983
-0.25734441421507165 0.10659554656884228 0.9604224288946981
-0.4896097780374763 -0.20280301033360346 0.8480290114434301
-0.4896097780374764 -0.20280301033360348 0.8480290114434302
-0.4896097780374763 -0.2028030103336035 0.8480290114434302
-0.48960977803747635 -0.20280301033360346 0.84802901144343
-0.2028030103336035 -0.4896097780374764 0.8480290114434301
-0.20280301033360357 -0.48960977803747646 0.8480290114434301
-0.2028030103336036 -0.48960977803747646 0.84802901144343
-0.2028030103336036 -0.4896097780374764 0.8480290114434302
0.20280301033360346 -0.4896097780374763 0.8480290114434301
0.20280301033360354 -0.4896097780374764 0.8480290114434302
0.20280301033360348 -0.48960977803747624 0.8480290114434301
0.20280301033360346 -0.48960977803747635 0.84802901144343
0.4896097780374764 -0.2028030103336035 0.8480290114434301
0.4896097780374765 -0.2028030103336036 0.8480290114434301
0.48960977803747635 -0.2028030103336036 0.84802901144343
0.48960977803747635 -0.2028030103336036 0.8480290114434301
0.4896097780374765 0.2028030103336035 0.84802901144343
0.4896097780374764 0.20280301033360348 0.8480290114434302
0.48960977803747635 0.20280301033360348 0.8480290114434301
0.48960977803747663 0.20280301033360348 0.8480290114434301
0.2028030103336035 0.4896097780374764 0.8480290114434301
0.20280301033360365 0.48960977803747646 0.8480290114434301
0.20280301033360373 0.4896097780374767 0.84802901144343
0.20280301033360357 0.4896097780374764 0.8480290114434302
-0.20280301033360346 0.4896097780374763 0.8480290114434301
-0.20280301033360354 0.4896097780374764 0.8480290114434302
-0.20280301033360337 0.48960977803747624 0.8480290114434303
-0.2028030103336034 0.48960977803747635 0.8480290114434302
-0.4896097780374764 0.2028030103336036 0.8480290114434302
-0.48960977803747624 0.20280301033360357 0.8480290114434302
-0.4896097780374763 0.2028030103336035 0.84802901144343
-0.48960977803747635 0.2028030103336036 0.8480290114434301
-0.6785983445458472 -0.28108463771482034 0.6785983445458469
-0.6785983445458468 -0.28108463771482034 0.6785983445458471
-0.6785983445458468 -0.2810846377148202 0.6785983445458477
-0.678598344545847 -0.2810846377148202 0.6785983445458471
-0.2810846377148205 -0.6785983445458471 0.6785983445458469
-0.2810846377148201 -0.6785983445458467 0.6785983445458472
-0.2810846377148201 -0.6785983445458466 0.6785983445458476
-0.2810846377148204 -0.6785983445458467 0.6785983445458471
0.28108463771482034 -0.6785983445458472 0.6785983445458469
0.2810846377148204 -0.6785983445458468 0.6785983445458471
0.28108463771482034 -0.6785983445458469 0.6785983445458474
0.28108463771482023 -0.6785983445458471 0.678598344545847
0.6785983445458469 -0.2810846377148205 0.6785983445458472
0.6785983445458468 -0.2810846377148203 0.6785983445458471
0.6785983445458467 -0.2810846377148203 0.6785983445458474
0.6785983445458468 -0.2810846377148204 0.6785983445458471
0.6785983445458474 0.2810846377148204 0.6785983445458468
0.6785983445458469 0.28108463771482045 0.6785983445458471
0.6785983445458466 0.28108463771482023 0.6785983445458476
0.6785983445458472 0.28108463771482023 0.6785983445458469
0.28108463771482056 0.6785983445458471 0.6785983445458471
0.28108463771482045 0.6785983445458469 0.6785983445458468
0.2810846377148205 0.6785983445458469 0.6785983445458471
0.28108463771482045 0.6785983445458469 0.6785983445458471
-0.28108463771482034 0.6785983445458473 0.6785983445458468
-0.2810846377148204 0.6785983445458468 0.6785983445458471
-0.2810846377148199 0.6785983445458463 0.6785983445458479
-0.2810846377148199 0.6785983445458469 0.6785983445458473
-0.6785983445458468 0.2810846377148203 0.6785983445458471
-0.6785983445458469 0.28108463771482034 0.6785983445458473
-0.6785983445458469 0.2810846377148203 0.6785983445458473
-0.6785983445458468 0.2810846377148203 0.6785983445458472
-0.8151645468115696 -0.33765221085506986 0.4706354705355001
-0.81516454681157 -0.3376522108550699 0.47063547053549964
-0.8151645468115701 -0.3376522108550701 0.47063547053549926
-0.8151645468115699 -0.3376522108550701 0.47063547053549976
-0.33765221085507 -0.8151645468115698 0.4706354705355001
-0.33765221085507025 -0.8151645468115699 0.47063547053549987
-0.3376522108550702 -0.8151645468115702 0.4706354705354991
-0.33765221085506986 -0.8151645468115699 0.47063547053549953
0.33765221085507 -0.8151645468115696 0.47063547053549987
0.33765221085506997 -0.81516454681157 0.47063547053549964
0.3376522108550702 -0.8151645468115701 0.47063547053549903
0.3376522108550702 -0.8151645468115698 0.4706354705354996
0.8151645468115699 -0.3376522108550702 0.4706354705354995
0.8151645468115699 -0.33765221085507013 0.47063547053549926
0.8151645468115699 -0.33765221085507025 0.47063547053549964
0.8151645468115699 -0.3376522108550702 0.4706354705354996
0.8151645468115696 0.33765221085507 0.47063547053549987
0.8151645468115699 0.3376522108550701 0.47063547053549964
0.81516454681157 0.33765221085507013 0.4706354705354993
0.8151645468115698 0.3376522108550702 0.4706354705354996
0.3376522108550703 0.8151645468115699 0.4706354705354997
0.3376522108550704 0.8151645468115699 0.47063547053549937
0.3376522108550704 0.81516454681157 0.4706354705354993
0.3376522108550702 0.8151645468115698 0.4706354705354995
-0.33765221085506986 0.8151645468115698 0.47063547053549987
-0.33765221085506986 0.81516454681157 0.47063547053549964
-0.3376522108550699 0.8151645468115701 0.4706354705354995
-0.3376522108550699 0.81516454681157 0.47063547053549987
-0.8151645468115699 0.33765221085507013 0.4706354705354996
-0.8151645468115698 0.33765221085507 0.47063547053549987
-0.8151645468115698 0.33765221085507 0.4706354705355
-0.8151645468115698 0.33765221085507013 0.4706354705354995
-0.8968088177445295 -0.3714703751655653 0.24029919847975595
-0.8968088177445294 -0.37147037516556536 0.2402991984797564
-0.8968088177445293 -0.371470375165565 0.24029919847975753
-0.8968088177445295 -0.37147037516556497 0.24029919847975684
-0.3714703751655653 -0.8968088177445293 0.24029919847975686
-0.3714703751655654 -0.8968088177445294 0.2402991984797569
-0.3714703751655653 -0.8968088177445295 0.24029919847975661
-0.3714703751655653 -0.8968088177445296 0.2402991984797567
0.3714703751655655 -0.8968088177445296 0.240299198479756
0.37147037516556547 -0.8968088177445294 0.2402991984797566
0.37147037516556525 -0.8968088177445294 0.24029919847975742
0.37147037516556514 -0.8968088177445295 0.24029919847975678
0.8968088177445293 -0.37147037516556547 0.2402991984797566
0.8968088177445293 -0.37147037516556536 0.24029919847975684
0.8968088177445294 -0.3714703751655654 0.2402991984797568
0.8968088177445293 -0.3714703751655654 0.24029919847975642
0.8968088177445296 0.3714703751655655 0.240299198479756
0.8968088177445293 0.3714703751655656 0.24029919847975645
0.8968088177445294 0.37147037516556525 0.24029919847975734
0.8968088177445295 0.37147037516556514 0.24029919847975678
0.37147037516556564 0.8968088177445293 0.24029919847975695
0.37147037516556564 0.8968088177445293 0.2402991984797569
0.37147037516556564 0.8968088177445295 0.24029919847975648
0.37147037516556547 0.8968088177445294 0.24029919847975656
-0.37147037516556525 0.8968088177445294 0.24029919847975753
-0.3714703751655651 0.8968088177445298 0.2402991984797567
-0.37147037516556497 0.8968088177445295 0.24029919847975656
-0.37147037516556514 0.8968088177445293 0.24029919847975723
-0.8968088177445294 0.3714703751655654 0.24029919847975656
-0.8968088177445294 0.3714703751655652 0.24029919847975692
-0.8968088177445293 0.37147037516556525 0.240299198479757
-0.8968088177445294 0.37147037516556536 0.24029919847975648
-0.9238795325112866 -0.38268343236508967 -5.133812107529117E-16
-0.9238795325112867 -0.3826834323650899 -2.9366222570670676E-18
-0.923879532511287 -0.38268343236508956 1.1978894917567947E-15
-0.923879532511287 -0.38268343236508945 7.252881433641311E-16
-0.3826834323650898 -0.9238795325112867 -1.7112707025097052E-16
-0.3826834323650895 -0.9238795325112868 7.252881433641311E-16
-0.38268343236508967 -0.9238795325112868 1.197889491756796E-15
-0.38268343236508995 -0.9238795325112867 3.7174005947309925E-17
0.3826834323650898 -0.9238795325112867 -5.133812107529119E-16
0.38268343236508995 -0.9238795325112867 -3.7174005947309925E-17
0.38268343236508967 -0.9238795325112868 1.369016562007766E-15
0.3826834323650896 -0.923879532511287 5.128561644869782E-16
0.9238795325112867 -0.38268343236508995 3.4225414050194143E-16
0.9238795325112866 -0.38268343236508984 2.1243197887715318E-16
0.9238795325112867 -0.38268343236508995 1.7112707025097052E-16
0.9238795325112867 -0.38268343236508995 5.25821541739058E-18
0.9238795325112867 0.3826834323650898 -5.133812107529122E-16
0.9238795325112868 0.38268343236509006 -5.258215417390581E-18
0.9238795325112867 0.3826834323650898 1.0267624215058237E-15
0.9238795325112868 0.38268343236508967 2.1243197887715326E-16
0.38268343236509006 0.9238795325112867 8.556353512548531E-16
0.38268343236509006 0.9238795325112867 5.128561644869783E-16
0.38268343236508995 0.9238795325112867 0
0.38268343236508995 0.9238795325112867 -3.505603491537015E-17
-0.38268343236508956 0.9238795325112868 5.133812107529116E-16
-0.3826834323650895 0.923879532511287 3.505603491537011E-17
-0.38268343236508945 0.9238795325112868 3.422541405019417E-16
-0.38268343236508956 0.9238795325112868 5.128561644869784E-16
-0.9238795325112866 0.38268343236508984 0
-0.9238795325112868 0.38268343236508984 2.124319788771533E-16
-0.9238795325112867 0.3826834323650898 1.7112707025097074E-16
-0.9238795325112867 0.3826834323650899 2.9366222570670676E-18

