# vtk DataFile Version 4.1
Header:
ASCII

DATASET UNSTRUCTURED_GRID
POINTS 56 double
0.1046023729152566 0.015713484026367724 0
0.1517428249943598 0.0628539361054709 0
0.08507615832769312 0.0628539361054709 0
0.0628539361054709 0.08507615832769312 0
0.0628539361054709 0.1517428249943598 0
0.01571348402636773 0.1046023729152566 0
-0.015713484026367717 0.1046023729152566 0
-0.0628539361054709 0.1517428249943598 0
-0.0628539361054709 0.08507615832769312 0
-0.08507615832769311 0.06285393610547091 0
-0.1517428249943598 0.06285393610547092 0
-0.1046023729152566 0.015713484026367738 0
-0.1046023729152566 -0.01571348402636771 0
-0.1517428249943598 -0.06285393610547088 0
-0.08507615832769312 -0.0628539361054709 0
-0.06285393610547091 -0.08507615832769311 0
-0.06285393610547092 -0.1517428249943598 0
-0.01571348402636774 -0.1046023729152566 0
0.015713484026367703 -0.1046023729152566 0
0.06285393610547087 -0.1517428249943598 0
0.06285393610547087 -0.08507615832769312 0
0.08507615832769311 -0.0628539361054709 0
0.1517428249943598 -0.0628539361054709 0
0.1046023729152566 -0.015713484026367724 0
0.18445183252016548 0.07640245063442326 0.004313650751708679
0.23617557465069794 0.02926199855532007 0.012940952255126037
0.23941645012620846 0.09916954069749721 0.021568253758543394
0.18769270799567597 0.1463099927766004 0.012940952255126037
0.07640245063442326 0.18445183252016548 0.004313650751708679
0.1463099927766004 0.18769270799567597 0.012940952255126037
0.09916954069749724 0.23941645012620846 0.021568253758543394
0.02926199855532009 0.23617557465069794 0.012940952255126037
-0.07640245063442325 0.18445183252016548 0.004313650751708679
-0.02926199855532007 0.23617557465069794 0.012940952255126037
-0.09916954069749721 0.23941645012620846 0.021568253758543394
-0.1463099927766004 0.18769270799567597 0.012940952255126037
-0.18445183252016548 0.07640245063442327 0.004313650751708679
-0.18769270799567597 0.1463099927766004 0.012940952255126037
-0.23941645012620846 0.09916954069749724 0.021568253758543394
-0.23617557465069794 0.029261998555320107 0.012940952255126037
-0.1844518325201655 -0.07640245063442323 0.004313650751708679
-0.23617557465069794 -0.029261998555320055 0.012940952255126037
-0.23941645012620846 -0.09916954069749721 0.021568253758543394
-0.18769270799567597 -0.1463099927766004 0.012940952255126037
-0.07640245063442329 -0.18445183252016548 0.004313650751708679
-0.14630999277660042 -0.18769270799567597 0.012940952255126037
-0.09916954069749727 -0.23941645012620846 0.021568253758543394
-0.02926199855532012 -0.23617557465069794 0.012940952255126037
0.07640245063442322 -0.18445183252016548 0.004313650751708679
0.02926199855532004 -0.23617557465069794 0.012940952255126037
0.09916954069749719 -0.23941645012620846 0.021568253758543394
0.14630999277660037 -0.18769270799567597 0.012940952255126037
0.18445183252016548 -0.07640245063442326 0.004313650751708679
0.18769270799567594 -0.1463099927766004 0.012940952255126037
0.23941645012620838 -0.09916954069749724 0.021568253758543394
0.23617557465069794 -0.02926199855532009 0.012940952255126037


POINT_DATA 56
VECTORS normals double
0 0 1
0 0 1
0 0 1
0 0 1
0 0 1
0 0 1
0 -0 1
0 0 1
0 0 0.9999999999999999
0 0 1
0 0 1
-0 0 1
0 0 1
0 0 1
0 0 0.9999999999999999
0 0 1
-0 0 1
0 -0 1
0 0 1
0 0 1
0 0 1
0 0 1
0 -0 1
0 0 1
-0.2573444142150718 -0.10659554656884221 0.960422428894698
-0.2573444142150716 -0.10659554656884224 0.960422428894698
-0.25734441421507165 -0.10659554656884221 0.9604224288946983
-0.25734441421507187 -0.1065955465688422 0.9604224288946981
-0.10659554656884221 -0.2573444142150718 0.960422428894698
-0.1065955465688422 -0.2573444142150718 0.9604224288946981
-0.10659554656884222 -0.2573444142150716 0.9604224288946983
-0.1065955465688423 -0.2573444142150717 0.9604224288946983
0.10659554656884221 -0.25734441421507176 0.960422428894698
0.10659554656884226 -0.2573444142150717 0.9604224288946984
0.10659554656884221 -0.25734441421507165 0.9604224288946983
0.1065955465688422 -0.2573444142150718 0.9604224288946981
0.2573444142150717 -0.10659554656884224 0.960422428894698
0.2573444142150717 -0.10659554656884222 0.9604224288946981
0.25734441421507165 -0.10659554656884224 0.9604224288946983
0.25734441421507165 -0.10659554656884228 0.9604224288946983
0.2573444142150717 0.10659554656884215 0.9604224288946982
0.2573444142150717 0.10659554656884218 0.9604224288946984
0.25734441421507165 0.10659554656884217 0.960422428894698
0.2573444142150717 0.10659554656884218 0.9604224288946981
0.10659554656884224 0.2573444142150717 0.960422428894698
0.10659554656884222 0.2573444142150717 0.9604224288946981
0.10659554656884222 0.2573444142150716 0.9604224288946983
0.10659554656884226 0.25734441421507165 0.9604224288946984
-0.10659554656884221 0.25734441421507176 0.960422428894698
-0.10659554656884226 0.2573444142150717 0.9604224288946984
-0.10659554656884221 0.25734441421507165 0.9604224288946983
-0.1065955465688422 0.2573444142150718 0.9604224288946981
-0.25734441421507165 0.10659554656884224 0.960422428894698
-0.2573444142150716 0.10659554656884222 0.960422428894698
-0.25734441421507165 0.10659554656884226 0.9604224288946983
-0.25734441421507165 0.10659554656884228 0.9604224288946981

