# vtk DataFile Version 4.1
Header:
ASCII

DATASET UNSTRUCTURED_GRID
POINTS 24 double
0.45220209244046955 0.18730823962233728 20.429787705636258
0.18730823962233775 0.4522020924404738 20.429787705636258
-0.18730823962233265 0.4522020924404713 20.429787705636258
-0.45220209244046544 0.18730823962233484 20.429787705636258
-0.45220209244046505 -0.18730823962233473 20.429787705636258
-0.18730823962233226 -0.4522020924404638 20.429787705636258
0.1873082396223332 -0.4522020924404624 20.429787705636258
0.45220209244046505 -0.18730823962233337 20.429787705636258
0.5297877056362614 -7.927052900152987E-16 10.429787705636258
0.3746164792446672 0.37461647924466823 10.429787705636258
7.822085214217035E-16 0.5297877056362645 10.429787705636258
-0.3746164792446635 0.37461647924466573 10.429787705636258
-0.5297877056362609 -7.037820167815555E-16 10.429787705636258
-0.3746164792446631 -0.3746164792446641 10.429787705636258
7.097448607721484E-16 -0.5297877056362585 10.429787705636258
0.37461647924466257 -0.3746164792446628 10.429787705636258
0.4522020924404627 0.1873082396223294 10.429787705636258
0.18730823962233703 0.4522020924404669 10.429787705636258
-0.18730823962232937 0.45220209244046594 10.429787705636258
-0.4522020924404622 0.1873082396223356 10.429787705636258
-0.45220209244046217 -0.18730823962233084 10.429787705636258
-0.187308239622333 -0.45220209244046283 10.429787705636258
0.18730823962233084 -0.45220209244046 10.429787705636258
0.4522020924404613 -0.18730823962233262 10.429787705636258


POINT_DATA 24
VECTORS normals double
-0.923879532511287 -0.38268343236508956 1.1978894917567947E-15
-0.38268343236508967 -0.9238795325112868 1.1978894917567961E-15
0.38268343236508967 -0.9238795325112868 1.369016562007766E-15
0.9238795325112867 -0.38268343236508995 1.7112707025097052E-16
0.9238795325112867 0.3826834323650898 1.0267624215058237E-15
0.38268343236508995 0.9238795325112867 0
-0.38268343236508945 0.9238795325112868 3.422541405019417E-16
-0.9238795325112867 0.3826834323650898 1.7112707025097074E-16
-1 2.3153325762317406E-17 3.704532121970785E-16
-0.7071067811865477 -0.7071067811865475 1.0408162360158313E-15
4.6306651524634824E-17 -1 6.945997728695224E-16
0.7071067811865476 -0.7071067811865477 6.13021421057185E-16
1 -1.0418996593042829E-16 3.2414656067244355E-16
0.7071067811865477 0.7071067811865475 4.741014664832807E-16
3.588765493159198E-16 1 9.261330304926961E-17
-0.7071067811865475 0.7071067811865476 3.351815119093764E-16
-0.923879532511287 -0.38268343236508956 1.1978894917567947E-15
-0.38268343236508967 -0.9238795325112868 1.1978894917567961E-15
0.38268343236508967 -0.9238795325112868 1.369016562007766E-15
0.9238795325112867 -0.38268343236508995 1.7112707025097052E-16
0.9238795325112867 0.3826834323650898 1.0267624215058237E-15
0.38268343236508995 0.9238795325112867 0
-0.38268343236508945 0.9238795325112868 3.422541405019417E-16
-0.9238795325112867 0.3826834323650898 1.7112707025097074E-16

