# vtk DataFile Version 4.1
Header:
ASCII

DATASET UNSTRUCTURED_GRID
POINTS 24 double
15.111055891304064 6.259204291956 10.075881904510247
9.043449160851738 -1.288645052462081E-15 5.075881904510251
8.987331534346119 0.13547993499805416 5.075881904510251
6.259204291956002 15.111055891304064 10.075881904510247
6.394684226954056 6.394684226954056 5.07588190451025
6.259204291956001 6.4508018534596765 5.07588190451025
-6.259204291956 15.111055891304064 10.07588190451025
1.1468440960578313E-15 9.043449160851738 5.075881904510251
-0.1354799349980543 8.987331534346119 5.075881904510251
-15.111055891304064 6.259204291956001 10.07588190451025
-6.394684226954056 6.394684226954056 5.0758819045102515
-6.4508018534596765 6.259204291956001 5.0758819045102515
-15.111055891304064 -6.259204291955999 10.07588190451025
-9.043449160851738 4.131412823705731E-16 5.075881904510251
-8.987331534346119 -0.13547993499805505 5.075881904510251
-6.259204291956001 -15.111055891304062 10.07588190451025
-6.394684226954056 -6.3946842269540545 5.0758819045102515
-6.259204291956001 -6.450801853459675 5.0758819045102515
6.259204291956 -15.111055891304066 10.075881904510247
-2.9485263319969514E-16 -9.043449160851738 5.075881904510251
0.13547993499805516 -8.987331534346119 5.075881904510251
15.111055891304062 -6.259204291956003 10.075881904510247
6.394684226954055 -6.394684226954057 5.07588190451025
6.450801853459676 -6.259204291956002 5.07588190451025


POINT_DATA 24
VECTORS normals double
-0.4896097780374763 -0.2028030103336035 0.8480290114434302
-0.49999999999999983 3.3927629222845524E-17 0.8660254037844387
-0.4896097780374763 -0.2028030103336035 0.8480290114434302
-0.2028030103336036 -0.48960977803747646 0.84802901144343
-0.3535533905932736 -0.3535533905932736 0.8660254037844387
-0.2028030103336036 -0.48960977803747646 0.84802901144343
0.2028030103336035 -0.4896097780374763 0.8480290114434302
-5.089144383426829E-17 -0.49999999999999983 0.8660254037844387
0.2028030103336035 -0.4896097780374763 0.8480290114434302
0.4896097780374763 -0.2028030103336036 0.84802901144343
0.3535533905932737 -0.3535533905932737 0.8660254037844387
0.4896097780374763 -0.2028030103336036 0.84802901144343
0.48960977803747635 0.2028030103336035 0.8480290114434302
0.49999999999999983 -5.937335113997967E-17 0.8660254037844387
0.48960977803747635 0.2028030103336035 0.8480290114434302
0.20280301033360373 0.4896097780374767 0.8480290114434299
0.3535533905932738 0.3535533905932737 0.8660254037844387
0.20280301033360373 0.4896097780374767 0.8480290114434299
-0.20280301033360335 0.4896097780374762 0.8480290114434302
7.633716575140243E-17 0.49999999999999983 0.8660254037844387
-0.20280301033360335 0.4896097780374762 0.8480290114434302
-0.4896097780374763 0.2028030103336035 0.84802901144343
-0.35355339059327356 0.3535533905932736 0.8660254037844388
-0.4896097780374763 0.2028030103336035 0.84802901144343

