# vtk DataFile Version 4.1
Header:
ASCII

DATASET UNSTRUCTURED_GRID
POINTS 16 double
0.4780639635057277 0.12487215974821958 7.096454372302925
0.42634022137519983 0.24974431949644496 13.763121038969592
0.24974431949644482 0.42634022137519806 7.096454372302925
0.12487215974822519 0.4780639635057351 13.763121038969592
-0.12487215974821957 0.4780639635057298 7.096454372302925
-0.24974431949644185 0.426340221375201 13.763121038969592
-0.42634022137519495 0.24974431949644385 7.096454372302925
-0.47806396350572955 0.12487215974822324 13.763121038969592
-0.47806396350572733 -0.12487215974822054 7.096454372302925
-0.4263402213751968 -0.24974431949644324 13.763121038969592
-0.24974431949644207 -0.4263402213751953 7.096454372302925
-0.12487215974822152 -0.4780639635057284 13.763121038969592
0.12487215974822054 -0.47806396350572583 7.096454372302925
0.24974431949644224 -0.42634022137519506 13.763121038969592
0.4263402213751943 -0.2497443194964419 7.096454372302925
0.4780639635057293 -0.12487215974822226 13.763121038969592


POINT_DATA 16
VECTORS normals double
-0.9238795325112868 -0.38268343236508956 3.1487380926178597E-16
-0.9238795325112984 -0.3826834323650614 9.324664923245264E-16
-0.3826834323650897 -0.923879532511287 9.891144660506107E-16
-0.38268343236507507 -0.923879532511293 6.694234669635761E-16
0.3826834323650897 -0.923879532511287 6.134905468497301E-16
0.3826834323650893 -0.9238795325112871 6.228053470898893E-16
0.9238795325112867 -0.38268343236508995 5.082473986453829E-16
0.9238795325112913 -0.382683432365079 2.691033140475995E-16
0.9238795325112867 0.38268343236508984 3.2599706882809916E-16
0.9238795325112885 0.38268343236508606 4.1025902910236515E-16
0.38268343236508995 0.9238795325112866 4.671769017851499E-16
0.3826834323650713 0.9238795325112943 5.883228660793821E-17
-0.38268343236508945 0.923879532511287 1.1636640777066009E-16
-0.3826834323650806 0.9238795325112904 3.0824746092975456E-16
-0.9238795325112867 0.3826834323650897 3.0888436180300195E-16
-0.9238795325112856 0.3826834323650927 3.719668915611254E-16

