# vtk DataFile Version 4.1
Header:
ASCII

DATASET UNSTRUCTURED_GRID
POINTS 152 double
0.1046023729152566 0.015713484026367724 0
0.1517428249943598 0.0628539361054709 0
0.08507615832769312 0.0628539361054709 0
0.0628539361054709 0.08507615832769312 0
0.0628539361054709 0.1517428249943598 0
0.01571348402636773 0.1046023729152566 0
-0.015713484026367717 0.1046023729152566 0
-0.0628539361054709 0.1517428249943598 0
-0.0628539361054709 0.08507615832769312 0
-0.08507615832769311 0.06285393610547091 0
-0.1517428249943598 0.06285393610547092 0
-0.1046023729152566 0.015713484026367738 0
-0.1046023729152566 -0.01571348402636771 0
-0.1517428249943598 -0.06285393610547088 0
-0.08507615832769312 -0.0628539361054709 0
-0.06285393610547091 -0.08507615832769311 0
-0.06285393610547092 -0.1517428249943598 0
-0.01571348402636774 -0.1046023729152566 0
0.015713484026367703 -0.1046023729152566 0
0.06285393610547087 -0.1517428249943598 0
0.06285393610547087 -0.08507615832769312 0
0.08507615832769311 -0.0628539361054709 0
0.1517428249943598 -0.0628539361054709 0
0.1046023729152566 -0.015713484026367724 0
0.18445183252016548 0.07640245063442326 0.004313650751708679
0.23617557465069794 0.02926199855532007 0.012940952255126037
0.23941645012620846 0.09916954069749721 0.021568253758543394
0.18769270799567597 0.1463099927766004 0.012940952255126037
0.07640245063442326 0.18445183252016548 0.004313650751708679
0.1463099927766004 0.18769270799567597 0.012940952255126037
0.09916954069749724 0.23941645012620846 0.021568253758543394
0.02926199855532009 0.23617557465069794 0.012940952255126037
-0.07640245063442325 0.18445183252016548 0.004313650751708679
-0.02926199855532007 0.23617557465069794 0.012940952255126037
-0.09916954069749721 0.23941645012620846 0.021568253758543394
-0.1463099927766004 0.18769270799567597 0.012940952255126037
-0.18445183252016548 0.07640245063442327 0.004313650751708679
-0.18769270799567597 0.1463099927766004 0.012940952255126037
-0.23941645012620846 0.09916954069749724 0.021568253758543394
-0.23617557465069794 0.029261998555320107 0.012940952255126037
-0.1844518325201655 -0.07640245063442323 0.004313650751708679
-0.23617557465069794 -0.029261998555320055 0.012940952255126037
-0.23941645012620846 -0.09916954069749721 0.021568253758543394
-0.18769270799567597 -0.1463099927766004 0.012940952255126037
-0.07640245063442329 -0.18445183252016548 0.004313650751708679
-0.14630999277660042 -0.18769270799567597 0.012940952255126037
-0.09916954069749727 -0.23941645012620846 0.021568253758543394
-0.02926199855532012 -0.23617557465069794 0.012940952255126037
0.07640245063442322 -0.18445183252016548 0.004313650751708679
0.02926199855532004 -0.23617557465069794 0.012940952255126037
0.09916954069749719 -0.23941645012620846 0.021568253758543394
0.14630999277660037 -0.18769270799567597 0.012940952255126037
0.18445183252016548 -0.07640245063442326 0.004313650751708679
0.18769270799567594 -0.1463099927766004 0.012940952255126037
0.23941645012620838 -0.09916954069749724 0.021568253758543394
0.23617557465069794 -0.02926199855532009 0.012940952255126037
0.26547758652338777 0.109964416844064 0.034215237843585405
0.3233017520503275 0.04005687470188684 0.05088190451025207
0.3147575145060622 0.13037683136725717 0.06754857117691873
0.25693334897912246 0.2002843735094343 0.050881904510252075
0.10996441684406404 0.26547758652338777 0.034215237843585405
0.20028437350943432 0.2569333489791224 0.050881904510252075
0.13037683136725717 0.3147575145060622 0.06754857117691873
0.040056874701886874 0.3233017520503275 0.05088190451025207
-0.109964416844064 0.26547758652338777 0.034215237843585405
-0.040056874701886847 0.3233017520503275 0.05088190451025207
-0.13037683136725717 0.3147575145060622 0.06754857117691873
-0.2002843735094343 0.25693334897912246 0.050881904510252075
-0.26547758652338777 0.10996441684406404 0.034215237843585405
-0.2569333489791224 0.20028437350943432 0.050881904510252075
-0.3147575145060622 0.1303768313672572 0.06754857117691873
-0.3233017520503275 0.040056874701886895 0.05088190451025207
-0.26547758652338777 -0.109964416844064 0.034215237843585405
-0.3233017520503275 -0.04005687470188683 0.05088190451025207
-0.3147575145060622 -0.1303768313672571 0.06754857117691873
-0.25693334897912246 -0.2002843735094343 0.050881904510252075
-0.10996441684406405 -0.26547758652338777 0.034215237843585405
-0.20028437350943432 -0.2569333489791224 0.050881904510252075
-0.13037683136725722 -0.3147575145060622 0.06754857117691873
-0.04005687470188691 -0.3233017520503275 0.05088190451025207
0.10996441684406395 -0.26547758652338777 0.034215237843585405
0.04005687470188681 -0.3233017520503275 0.05088190451025207
0.1303768313672571 -0.3147575145060622 0.06754857117691873
0.20028437350943426 -0.25693334897912246 0.05088190451025207
0.26547758652338777 -0.10996441684406404 0.034215237843585405
0.2569333489791224 -0.20028437350943432 0.05088190451025207
0.3147575145060622 -0.13037683136725717 0.06754857117691873
0.3233017520503275 -0.04005687470188688 0.05088190451025207
0.33713671967828535 0.13964660166472212 0.08766701753002785
0.39811869672158356 0.0493266449993518 0.11123724356957944
0.3773736123845037 0.15631326833138878 0.13480746960913104
0.31639163534120546 0.2466332249967591 0.11123724356957947
0.13964660166472212 0.33713671967828535 0.08766701753002785
0.2466332249967591 0.31639163534120546 0.11123724356957947
0.15631326833138878 0.3773736123845037 0.13480746960913104
0.049326644999351826 0.39811869672158356 0.11123724356957944
-0.13964660166472212 0.33713671967828535 0.08766701753002785
-0.049326644999351806 0.39811869672158356 0.11123724356957944
-0.15631326833138878 0.3773736123845037 0.13480746960913104
-0.2466332249967591 0.31639163534120546 0.11123724356957947
-0.33713671967828535 0.13964660166472218 0.08766701753002785
-0.31639163534120546 0.2466332249967591 0.11123724356957947
-0.3773736123845037 0.1563132683313888 0.13480746960913104
-0.39811869672158356 0.049326644999351854 0.11123724356957944
-0.33713671967828535 -0.13964660166472206 0.08766701753002785
-0.39811869672158356 -0.04932664499935177 0.11123724356957944
-0.3773736123845037 -0.15631326833138873 0.13480746960913104
-0.31639163534120546 -0.24663322499675908 0.11123724356957947
-0.13964660166472218 -0.33713671967828535 0.08766701753002785
-0.2466332249967591 -0.31639163534120546 0.11123724356957947
-0.1563132683313888 -0.3773736123845037 0.13480746960913104
-0.049326644999351854 -0.39811869672158356 0.11123724356957944
0.13964660166472206 -0.33713671967828535 0.08766701753002785
0.04932664499935177 -0.39811869672158356 0.11123724356957944
0.15631326833138873 -0.3773736123845037 0.134807469609131
0.24663322499675908 -0.31639163534120546 0.11123724356957942
0.33713671967828535 -0.13964660166472212 0.08766701753002785
0.31639163534120546 -0.24663322499675913 0.11123724356957942
0.3773736123845037 -0.15631326833138884 0.134807469609131
0.39811869672158356 -0.04932664499935185 0.11123724356957942
0.39454578048266886 0.16342621325299939 0.16102633935864744
0.4555277575259671 0.0564395899209624 0.18989385281812876
0.42299756016911133 0.17521132627277516 0.21876136627761003
0.3620155831258131 0.2821979496048122 0.18989385281812876
0.1634262132529994 0.39454578048266886 0.16102633935864744
0.2821979496048122 0.3620155831258131 0.18989385281812876
0.17521132627277522 0.42299756016911133 0.21876136627761003
0.05643958992096246 0.4555277575259671 0.18989385281812876
-0.1634262132529994 0.39454578048266886 0.1610263393586475
-0.05643958992096241 0.4555277575259671 0.18989385281812876
-0.17521132627277516 0.42299756016911133 0.21876136627761003
-0.28219794960481215 0.3620155831258131 0.18989385281812876
-0.39454578048266886 0.16342621325299944 0.1610263393586475
-0.3620155831258131 0.2821979496048122 0.18989385281812876
-0.42299756016911133 0.17521132627277525 0.21876136627761003
-0.4555277575259671 0.05643958992096248 0.18989385281812876
-0.39454578048266886 -0.16342621325299936 0.1610263393586475
-0.4555277575259671 -0.05643958992096238 0.18989385281812876
-0.42299756016911133 -0.17521132627277514 0.21876136627761003
-0.3620155831258131 -0.28219794960481215 0.18989385281812876
-0.16342621325299944 -0.39454578048266886 0.1610263393586475
-0.2821979496048122 -0.3620155831258131 0.18989385281812876
-0.17521132627277525 -0.42299756016911133 0.21876136627761003
-0.05643958992096248 -0.4555277575259671 0.18989385281812876
0.16342621325299936 -0.39454578048266886 0.16102633935864744
0.056439589920962395 -0.4555277575259671 0.18989385281812873
0.17521132627277516 -0.4229975601691114 0.21876136627761
0.28219794960481215 -0.36201558312581317 0.18989385281812873
0.39454578048266886 -0.16342621325299947 0.16102633935864744
0.3620155831258131 -0.2821979496048122 0.18989385281812873
0.42299756016911133 -0.17521132627277525 0.21876136627761
0.4555277575259671 -0.05643958992096248 0.18989385281812876


POINT_DATA 152
VECTORS normals double
0 0 1
0 0 1
0 0 1
0 0 1
0 0 1
0 0 1
0 -0 1
0 0 1
0 0 0.9999999999999999
0 0 1
0 0 1
-0 0 1
0 0 1
0 0 1
0 0 0.9999999999999999
0 0 1
-0 0 1
0 -0 1
0 0 1
0 0 1
0 0 1
0 0 1
0 -0 1
0 0 1
-0.2573444142150718 -0.10659554656884221 0.960422428894698
-0.2573444142150716 -0.10659554656884224 0.960422428894698
-0.25734441421507165 -0.10659554656884221 0.9604224288946983
-0.25734441421507187 -0.1065955465688422 0.9604224288946981
-0.10659554656884221 -0.2573444142150718 0.960422428894698
-0.1065955465688422 -0.2573444142150718 0.9604224288946981
-0.10659554656884222 -0.2573444142150716 0.9604224288946983
-0.1065955465688423 -0.2573444142150717 0.9604224288946983
0.10659554656884221 -0.25734441421507176 0.960422428894698
0.10659554656884226 -0.2573444142150717 0.9604224288946984
0.10659554656884221 -0.25734441421507165 0.9604224288946983
0.1065955465688422 -0.2573444142150718 0.9604224288946981
0.2573444142150717 -0.10659554656884224 0.960422428894698
0.2573444142150717 -0.10659554656884222 0.9604224288946981
0.25734441421507165 -0.10659554656884224 0.9604224288946983
0.25734441421507165 -0.10659554656884228 0.9604224288946983
0.2573444142150717 0.10659554656884215 0.9604224288946982
0.2573444142150717 0.10659554656884218 0.9604224288946984
0.25734441421507165 0.10659554656884217 0.960422428894698
0.2573444142150717 0.10659554656884218 0.9604224288946981
0.10659554656884224 0.2573444142150717 0.960422428894698
0.10659554656884222 0.2573444142150717 0.9604224288946981
0.10659554656884222 0.2573444142150716 0.9604224288946983
0.10659554656884226 0.25734441421507165 0.9604224288946984
-0.10659554656884221 0.25734441421507176 0.960422428894698
-0.10659554656884226 0.2573444142150717 0.9604224288946984
-0.10659554656884221 0.25734441421507165 0.9604224288946983
-0.1065955465688422 0.2573444142150718 0.9604224288946981
-0.25734441421507165 0.10659554656884224 0.960422428894698
-0.2573444142150716 0.10659554656884222 0.960422428894698
-0.25734441421507165 0.10659554656884226 0.9604224288946983
-0.25734441421507165 0.10659554656884228 0.9604224288946981
-0.4896097780374763 -0.20280301033360346 0.8480290114434301
-0.4896097780374764 -0.20280301033360348 0.8480290114434302
-0.4896097780374763 -0.2028030103336035 0.8480290114434302
-0.48960977803747635 -0.20280301033360346 0.84802901144343
-0.2028030103336035 -0.4896097780374764 0.8480290114434301
-0.20280301033360357 -0.48960977803747646 0.8480290114434301
-0.2028030103336036 -0.48960977803747646 0.84802901144343
-0.2028030103336036 -0.4896097780374764 0.8480290114434302
0.20280301033360346 -0.4896097780374763 0.8480290114434301
0.20280301033360354 -0.4896097780374764 0.8480290114434302
0.20280301033360348 -0.48960977803747624 0.8480290114434301
0.20280301033360346 -0.48960977803747635 0.84802901144343
0.4896097780374764 -0.2028030103336035 0.8480290114434301
0.4896097780374765 -0.2028030103336036 0.8480290114434301
0.48960977803747635 -0.2028030103336036 0.84802901144343
0.48960977803747635 -0.2028030103336036 0.8480290114434301
0.4896097780374765 0.2028030103336035 0.84802901144343
0.4896097780374764 0.20280301033360348 0.8480290114434302
0.48960977803747635 0.20280301033360348 0.8480290114434301
0.48960977803747663 0.20280301033360348 0.8480290114434301
0.2028030103336035 0.4896097780374764 0.8480290114434301
0.20280301033360365 0.48960977803747646 0.8480290114434301
0.20280301033360373 0.4896097780374767 0.84802901144343
0.20280301033360357 0.4896097780374764 0.8480290114434302
-0.20280301033360346 0.4896097780374763 0.8480290114434301
-0.20280301033360354 0.4896097780374764 0.8480290114434302
-0.20280301033360337 0.48960977803747624 0.8480290114434303
-0.2028030103336034 0.48960977803747635 0.8480290114434302
-0.4896097780374764 0.2028030103336036 0.8480290114434302
-0.48960977803747624 0.20280301033360357 0.8480290114434302
-0.4896097780374763 0.2028030103336035 0.84802901144343
-0.48960977803747635 0.2028030103336036 0.8480290114434301
-0.6785983445458472 -0.28108463771482034 0.6785983445458469
-0.6785983445458468 -0.28108463771482034 0.6785983445458471
-0.6785983445458468 -0.2810846377148202 0.6785983445458477
-0.678598344545847 -0.2810846377148202 0.6785983445458471
-0.2810846377148205 -0.6785983445458471 0.6785983445458469
-0.2810846377148201 -0.6785983445458467 0.6785983445458472
-0.2810846377148201 -0.6785983445458466 0.6785983445458476
-0.2810846377148204 -0.6785983445458467 0.6785983445458471
0.28108463771482034 -0.6785983445458472 0.6785983445458469
0.2810846377148204 -0.6785983445458468 0.6785983445458471
0.28108463771482034 -0.6785983445458469 0.6785983445458474
0.28108463771482023 -0.6785983445458471 0.678598344545847
0.6785983445458469 -0.2810846377148205 0.6785983445458472
0.6785983445458468 -0.2810846377148203 0.6785983445458471
0.6785983445458467 -0.2810846377148203 0.6785983445458474
0.6785983445458468 -0.2810846377148204 0.6785983445458471
0.6785983445458474 0.2810846377148204 0.6785983445458468
0.6785983445458469 0.28108463771482045 0.6785983445458471
0.6785983445458466 0.28108463771482023 0.6785983445458476
0.6785983445458472 0.28108463771482023 0.6785983445458469
0.28108463771482056 0.6785983445458471 0.6785983445458471
0.28108463771482045 0.6785983445458469 0.6785983445458468
0.2810846377148205 0.6785983445458469 0.6785983445458471
0.28108463771482045 0.6785983445458469 0.6785983445458471
-0.28108463771482034 0.6785983445458473 0.6785983445458468
-0.2810846377148204 0.6785983445458468 0.6785983445458471
-0.2810846377148199 0.6785983445458463 0.6785983445458479
-0.2810846377148199 0.6785983445458469 0.6785983445458473
-0.6785983445458468 0.2810846377148203 0.6785983445458471
-0.6785983445458469 0.28108463771482034 0.6785983445458473
-0.6785983445458469 0.2810846377148203 0.6785983445458473
-0.6785983445458468 0.2810846377148203 0.6785983445458472
-0.8151645468115696 -0.33765221085506986 0.4706354705355001
-0.81516454681157 -0.3376522108550699 0.47063547053549964
-0.8151645468115701 -0.3376522108550701 0.47063547053549926
-0.8151645468115699 -0.3376522108550701 0.47063547053549976
-0.33765221085507 -0.8151645468115698 0.4706354705355001
-0.33765221085507025 -0.8151645468115699 0.47063547053549987
-0.3376522108550702 -0.8151645468115702 0.4706354705354991
-0.33765221085506986 -0.8151645468115699 0.47063547053549953
0.33765221085507 -0.8151645468115696 0.47063547053549987
0.33765221085506997 -0.81516454681157 0.47063547053549964
0.3376522108550702 -0.8151645468115701 0.47063547053549903
0.3376522108550702 -0.8151645468115698 0.4706354705354996
0.8151645468115699 -0.3376522108550702 0.4706354705354995
0.8151645468115699 -0.33765221085507013 0.47063547053549926
0.8151645468115699 -0.33765221085507025 0.47063547053549964
0.8151645468115699 -0.3376522108550702 0.4706354705354996
0.8151645468115696 0.33765221085507 0.47063547053549987
0.8151645468115699 0.3376522108550701 0.47063547053549964
0.81516454681157 0.33765221085507013 0.4706354705354993
0.8151645468115698 0.3376522108550702 0.4706354705354996
0.3376522108550703 0.8151645468115699 0.4706354705354997
0.3376522108550704 0.8151645468115699 0.47063547053549937
0.3376522108550704 0.81516454681157 0.4706354705354993
0.3376522108550702 0.8151645468115698 0.4706354705354995
-0.33765221085506986 0.8151645468115698 0.47063547053549987
-0.33765221085506986 0.81516454681157 0.47063547053549964
-0.3376522108550699 0.8151645468115701 0.4706354705354995
-0.3376522108550699 0.81516454681157 0.47063547053549987
-0.8151645468115699 0.33765221085507013 0.4706354705354996
-0.8151645468115698 0.33765221085507 0.47063547053549987
-0.8151645468115698 0.33765221085507 0.4706354705355
-0.8151645468115698 0.33765221085507013 0.4706354705354995

