# vtk DataFile Version 4.1
Header:
ASCII

DATASET UNSTRUCTURED_GRID
POINTS 8 double
0.5297877056362651 -1.533611714409456E-15 20.429787705636258
0.374616479244674 0.3746164792446761 20.429787705636258
1.5231149458158604E-15 0.5297877056362715 20.429787705636258
-0.3746164792446668 0.3746164792446711 20.429787705636258
-0.5297877056362641 -1.444688441175712E-15 20.429787705636258
-0.37461647924466596 -0.374616479244668 20.429787705636258
1.450651285166305E-15 -0.5297877056362595 20.429787705636258
0.37461647924466496 -0.3746164792446652 20.429787705636258


POINT_DATA 8
VECTORS normals double
-1 2.3153325762317406E-17 3.704532121970785E-16
-0.7071067811865477 -0.7071067811865475 1.0408162360158313E-15
4.6306651524634824E-17 -1 6.945997728695224E-16
0.7071067811865476 -0.7071067811865477 6.13021421057185E-16
1 -1.0418996593042829E-16 3.2414656067244355E-16
0.7071067811865477 0.7071067811865475 4.741014664832807E-16
3.588765493159198E-16 1 9.261330304926961E-17
-0.7071067811865475 0.7071067811865476 3.351815119093764E-16

