# vtk DataFile Version 4.1
Header:
ASCII

DATASET UNSTRUCTURED_GRID
POINTS 24 double
12.45850064742654 5.1604799349980555 14.28872820635985
5.160479934998059 12.458500647426536 14.28872820635985
-5.1604799349980555 12.458500647426536 14.288728206359853
-12.458500647426536 5.160479934998056 14.288728206359854
-12.458500647426536 -5.160479934998055 14.288728206359856
-5.160479934998057 -12.458500647426536 14.288728206359853
5.160479934998056 -12.45850064742654 14.288728206359849
12.458500647426538 -5.16047993499806 14.288728206359849
7.5249736129914835 -5.634043468077644E-16 7.217660394494379
5.3209598699961145 5.320959869996112 7.217660394494379
3.279519051396109E-16 7.5249736129914835 7.217660394494379
-5.320959869996111 5.320959869996112 7.217660394494381
-7.5249736129914835 -1.8285274591488957E-16 7.217660394494381
-5.320959869996112 -5.32095986999611 7.217660394494382
-5.338532030182166E-16 -7.5249736129914835 7.217660394494379
5.320959869996113 -5.3209598699961145 7.217660394494378
7.458500647426536 0.1604799349980549 7.217660394494379
5.160479934998059 5.387432835561059 7.217660394494379
-0.16047993499805516 7.458500647426536 7.217660394494379
-5.387432835561058 5.160479934998056 7.217660394494381
-7.458500647426536 -0.16047993499805563 7.217660394494381
-5.160479934998056 -5.387432835561057 7.217660394494382
0.16047993499805494 -7.458500647426536 7.217660394494379
5.38743283556106 -5.160479934998059 7.217660394494378


POINT_DATA 24
VECTORS normals double
-0.6785983445458467 -0.2810846377148201 0.6785983445458476
-0.2810846377148201 -0.6785983445458466 0.6785983445458476
0.2810846377148203 -0.6785983445458468 0.6785983445458473
0.6785983445458468 -0.2810846377148203 0.6785983445458474
0.6785983445458466 0.28108463771482023 0.6785983445458476
0.28108463771482045 0.6785983445458469 0.6785983445458471
-0.2810846377148199 0.6785983445458463 0.6785983445458479
-0.6785983445458469 0.2810846377148203 0.6785983445458473
-0.7071067811865474 0 0.7071067811865479
-0.49999999999999983 -0.4999999999999997 0.7071067811865479
2.8119111182901656E-17 -0.7071067811865472 0.7071067811865478
0.49999999999999994 -0.49999999999999994 0.7071067811865478
0.7071067811865474 -1.4059555591450828E-17 0.7071067811865478
0.5 0.4999999999999999 0.7071067811865476
1.1247644473160662E-16 0.7071067811865472 0.7071067811865478
-0.4999999999999997 0.49999999999999983 0.707106781186548
-0.6785983445458467 -0.2810846377148201 0.6785983445458476
-0.2810846377148201 -0.6785983445458466 0.6785983445458476
0.2810846377148203 -0.6785983445458468 0.6785983445458473
0.6785983445458468 -0.2810846377148203 0.6785983445458474
0.6785983445458466 0.28108463771482023 0.6785983445458476
0.28108463771482045 0.6785983445458469 0.6785983445458471
-0.2810846377148199 0.6785983445458463 0.6785983445458479
-0.6785983445458469 0.2810846377148203 0.6785983445458473

