# vtk DataFile Version 4.1
Header:
ASCII

DATASET UNSTRUCTURED_GRID
POINTS 16 double
3.788042270435819 0.11877173635181214 6.006697814903608
6.0958680103674565 2.5945660766587832 11.780200506799867
2.594566076658785 2.7625346770341195 6.006697814903608
2.4757943403069724 6.145064874390975 11.780200506799867
-0.11877173635181236 3.7880422704358168 6.006697814903608
-2.5945660766587832 6.095868010367454 11.780200506799867
-2.7625346770341186 2.5945660766587846 6.006697814903608
-6.145064874390978 2.475794340306972 11.780200506799867
-3.788042270435819 -0.11877173635181247 6.006697814903608
-6.0958680103674565 -2.5945660766587832 11.780200506799867
-2.5945660766587846 -2.7625346770341186 6.006697814903608
-2.475794340306972 -6.145064874390975 11.780200506799867
0.11877173635181282 -3.788042270435818 6.006697814903608
2.594566076658786 -6.0958680103674565 11.780200506799865
2.7625346770341213 -2.594566076658787 6.006697814903607
6.14506487439098 -2.4757943403069747 11.780200506799865


POINT_DATA 16
VECTORS normals double
-0.81516454681157 -0.33765221085507 0.4706354705354996
-0.8151645468115698 -0.3376522108550703 0.4706354705354995
-0.33765221085507013 -0.81516454681157 0.4706354705354994
-0.33765221085507 -0.8151645468115701 0.4706354705354994
0.3376522108550702 -0.8151645468115699 0.4706354705354993
0.33765221085506997 -0.8151645468115702 0.47063547053549937
0.8151645468115699 -0.33765221085507025 0.4706354705354994
0.8151645468115698 -0.3376522108550707 0.4706354705354995
0.8151645468115698 0.33765221085507013 0.4706354705354995
0.8151645468115699 0.3376522108550706 0.47063547053549953
0.33765221085507036 0.8151645468115699 0.4706354705354993
0.3376522108550705 0.8151645468115698 0.47063547053549926
-0.3376522108550699 0.81516454681157 0.47063547053549953
-0.3376522108550692 0.8151645468115702 0.4706354705354997
-0.8151645468115698 0.33765221085507 0.47063547053549976
-0.8151645468115701 0.3376522108550697 0.4706354705354997

