# vtk DataFile Version 4.1
Header:
ASCII

DATASET UNSTRUCTURED_GRID
POINTS 8 double
0.38319512300735076 -2.6329378425111743E-17 0.07588190451025206
0.27095986999611094 0.2709598699961109 0.07588190451025208
1.2571255522494921E-17 0.38319512300735076 0.07588190451025206
-0.2709598699961109 0.27095986999611094 0.07588190451025208
-0.38319512300735076 3.505033552546086E-17 0.07588190451025206
-0.27095986999611094 -0.2709598699961109 0.07588190451025208
-4.4804519856215834E-17 -0.38319512300735076 0.07588190451025206
0.2709598699961109 -0.27095986999611094 0.07588190451025206


POINT_DATA 8
VECTORS tangent_vectors double
1.3097454596351159E-16 1 2.560856670032659E-17
-0.7071067811865474 0.7071067811865474 -4.847031885617213E-33
-1 1.3097454596351159E-16 -4.847031885617215E-33
-0.7071067811865475 -0.7071067811865475 0
-4.36581819878372E-17 -1 4.847031885617215E-33
0.7071067811865472 -0.7071067811865475 4.847031885617213E-33
1 -4.36581819878372E-17 -2.560856670032659E-17
0.7071067811865476 0.7071067811865474 0


VECTORS normal_vectors double
-0.49999999999999983 3.3927629222845524E-17 0.8660254037844387
-0.3535533905932736 -0.3535533905932736 0.8660254037844387
-5.089144383426829E-17 -0.49999999999999983 0.8660254037844387
0.3535533905932737 -0.3535533905932737 0.8660254037844387
0.49999999999999983 -5.937335113997967E-17 0.8660254037844387
0.3535533905932738 0.3535533905932737 0.8660254037844387
7.633716575140243E-17 0.49999999999999983 0.8660254037844387
-0.35355339059327356 0.3535533905932736 0.8660254037844388


VECTORS extension_vectors double
0.8660254037844387 -1.2623156740369694E-16 0.49999999999999983
0.6123724356957945 0.6123724356957945 0.49999999999999967
1.1342728405353366E-16 0.8660254037844387 0.49999999999999983
-0.6123724356957945 0.6123724356957945 0.49999999999999983
-0.8660254037844387 3.780909468451122E-17 0.49999999999999983
-0.6123724356957945 -0.6123724356957944 0.49999999999999983
-2.500481133434793E-17 -0.8660254037844387 0.49999999999999983
0.6123724356957945 -0.6123724356957947 0.4999999999999997


