# vtk DataFile Version 4.1
Header:
ASCII

DATASET UNSTRUCTURED_GRID
POINTS 8 double
0.2 0 0
0.14142135623730953 0.14142135623730953 0
1.2246467991473533E-17 0.2 0
-0.1414213562373095 0.14142135623730953 0
-0.2 2.4492935982947065E-17 0
-0.14142135623730953 -0.1414213562373095 0
-3.6739403974420595E-17 -0.2 0
0.14142135623730948 -0.14142135623730953 0


POINT_DATA 8
VECTORS tangent_vectors double
2.40401327103271E-16 1 0
-0.7071067811865475 0.7071067811865475 0
-1 4.0066887850545174E-17 0
-0.7071067811865475 -0.7071067811865475 0
-8.013377570109034E-17 -1 0
0.7071067811865474 -0.7071067811865475 0
1 -1.2020066355163552E-16 0
0.7071067811865475 0.7071067811865476 0


VECTORS normal_vectors double
0 0 1
0 0 1
0 0 1
0 0 1
0 0 1
0 0 1
0 0 1
0 0 1


VECTORS extension_vectors double
1 -2.40401327103271E-16 0
0.7071067811865475 0.7071067811865475 -0
4.0066887850545174E-17 1 -0
-0.7071067811865475 0.7071067811865475 0
-1 8.013377570109034E-17 0
-0.7071067811865475 -0.7071067811865474 0
-1.2020066355163552E-16 -1 0
0.7071067811865476 -0.7071067811865475 0


