# vtk DataFile Version 4.1
Header:
ASCII

DATASET UNSTRUCTURED_GRID
POINTS 33 double
0 0 0
0.2 0 0
0.14142135623730953 0.14142135623730953 0
1.2246467991473533E-17 0.2 0
-0.1414213562373095 0.14142135623730953 0
-0.2 2.4492935982947065E-17 0
-0.14142135623730953 -0.1414213562373095 0
-3.6739403974420595E-17 -0.2 0
0.14142135623730948 -0.14142135623730953 0
0.11380711874576983 0.047140452079103175 0
0.047140452079103175 0.11380711874576983 0
-0.04714045207910317 0.11380711874576983 0
-0.11380711874576983 0.04714045207910319 0
-0.11380711874576983 -0.04714045207910316 0
-0.04714045207910319 -0.11380711874576983 0
0.04714045207910315 -0.11380711874576983 0
0.11380711874576983 -0.047140452079103175 0
0.29659258262890686 -2.3220985052321563E-17 0.025881904510252074
0.20972262642653144 0.20972262642653144 0.025881904510252074
1.6116632166860462E-17 0.29659258262890686 0.025881904510252074
-0.20972262642653144 0.20972262642653144 0.025881904510252074
-0.29659258262890686 3.223326433372092E-17 0.025881904510252074
-0.20972262642653147 -0.20972262642653144 0.025881904510252074
-4.8349896500581376E-17 -0.29659258262890686 0.025881904510252074
0.20972262642653142 -0.20972262642653144 0.025881904510252074
0.21193414132318694 0.08778599566596024 0.012940952255126037
0.08778599566596024 0.21193414132318694 0.012940952255126037
-0.08778599566596024 0.21193414132318694 0.012940952255126037
-0.21193414132318694 0.08778599566596026 0.012940952255126037
-0.21193414132318697 -0.08778599566596022 0.012940952255126037
-0.08778599566596028 -0.21193414132318694 0.012940952255126037
0.08778599566596021 -0.21193414132318694 0.012940952255126037
0.21193414132318694 -0.08778599566596024 0.012940952255126037


POINT_DATA 33
VECTORS normals double
0 0 1
-0.11921115926269929 9.452181581186321E-18 0.9928689236285138
-0.08429501910776417 -0.08429501910776417 0.9928689236285138
0 -0.11921115926269926 0.9928689236285138
0.08429501910776417 -0.0842950191077642 0.9928689236285138
0.11921115926269928 -1.7328999565508252E-17 0.9928689236285138
0.08429501910776417 0.08429501910776416 0.9928689236285138
6.301454387457546E-18 0.11921115926269928 0.9928689236285138
-0.08429501910776417 0.08429501910776419 0.9928689236285138
0 0 1
0 0 1
0 0 0.9999999999999999
0 0 1
0 0 1
0 0 1
0 0 1
0 0 1
-0.2588190451025207 1.1255824737891458E-17 0.9659258262890684
-0.18301270189221935 -0.1830127018922193 0.9659258262890684
-5.627912368945728E-18 -0.2588190451025207 0.9659258262890684
0.18301270189221933 -0.18301270189221935 0.9659258262890684
0.2588190451025207 -2.2511649475782916E-17 0.9659258262890684
0.18301270189221933 0.1830127018922193 0.9659258262890684
5.627912368945728E-18 0.2588190451025207 0.9659258262890684
-0.18301270189221924 0.1830127018922193 0.9659258262890684
-0.25734441421507176 -0.10659554656884222 0.9604224288946981
-0.10659554656884221 -0.25734441421507165 0.9604224288946981
0.10659554656884222 -0.2573444142150717 0.9604224288946981
0.25734441421507165 -0.10659554656884222 0.9604224288946981
0.2573444142150717 0.10659554656884218 0.9604224288946983
0.10659554656884222 0.25734441421507165 0.9604224288946983
-0.10659554656884222 0.2573444142150717 0.9604224288946981
-0.25734441421507165 0.10659554656884226 0.9604224288946983

