# vtk DataFile Version 4.1
Header:
ASCII

DATASET UNSTRUCTURED_GRID
POINTS 8 double
0.45390580112600554 -3.7644299870124833E-17 0.14659258262890681
0.3209598699961109 0.3209598699961109 0.14659258262890681
2.221032234010097E-17 0.45390580112600554 0.14659258262890681
-0.3209598699961109 0.3209598699961109 0.14659258262890684
-0.45390580112600554 3.716571822324005E-17 0.14659258262890681
-0.3209598699961109 -0.32095986999611087 0.14659258262890684
-4.524404792658798E-17 -0.45390580112600554 0.14659258262890681
0.32095986999611087 -0.320959869996111 0.1465925826289068


POINT_DATA 8
VECTORS tangent_vectors double
3.1115309595664124E-17 1 4.323838929764837E-17
-0.7071067811865474 0.7071067811865477 0
-1 0 4.3238389297648375E-17
-0.7071067811865476 -0.7071067811865475 6.908986626289279E-33
3.1115309595664136E-17 -1 6.908986626289279E-33
0.7071067811865474 -0.7071067811865477 6.908986626289277E-33
1 -1.5557654797832067E-16 -8.647677859529675E-17
0.7071067811865476 0.7071067811865474 0


VECTORS normal_vectors double
-0.7071067811865474 0 0.7071067811865479
-0.49999999999999983 -0.4999999999999997 0.7071067811865479
2.8119111182901656E-17 -0.7071067811865472 0.7071067811865478
0.49999999999999994 -0.49999999999999994 0.7071067811865478
0.7071067811865474 -1.4059555591450828E-17 0.7071067811865478
0.5 0.4999999999999999 0.7071067811865476
1.1247644473160662E-16 0.7071067811865472 0.7071067811865478
-0.4999999999999997 0.49999999999999983 0.707106781186548


VECTORS extension_vectors double
0.7071067811865479 -5.257600469376396E-17 0.7071067811865474
0.5000000000000003 0.5000000000000001 0.7071067811865472
3.057415827995099E-17 0.7071067811865478 0.7071067811865472
-0.5000000000000001 0.5000000000000002 0.7071067811865475
-0.7071067811865478 -2.2001846413812964E-17 0.7071067811865474
-0.5000000000000001 -0.4999999999999999 0.7071067811865475
-4.8860915509162865E-17 -0.7071067811865478 0.7071067811865472
0.5000000000000002 -0.5000000000000003 0.7071067811865471


