# vtk DataFile Version 4.1
Header:
ASCII

DATASET UNSTRUCTURED_GRID
POINTS 8 double
5.7061686076866796 -5.239519011052661E-16 19.64830423141762
4.034870517089052 4.034870517089053 19.64830423141762
1.226449155583433E-15 5.706168607686678 19.64830423141762
-4.03487051708905 4.034870517089054 19.64830423141762
-5.706168607686678 5.086707815681682E-16 19.64830423141762
-4.03487051708905 -4.034870517089051 19.64830423141762
-2.776208221568731E-17 -5.706168607686674 19.648304231417626
4.03487051708905 -4.034870517089054 19.64830423141762


POINT_DATA 8
VECTORS normals double
-0.9659258262890683 5.859900382499821E-17 0.25881904510252113
-0.6830127018922194 -0.6830127018922191 0.2588190451025212
1.5235740994499544E-16 -0.9659258262890682 0.258819045102521
0.6830127018922192 -0.6830127018922194 0.2588190451025212
0.9659258262890682 -3.5159402294998936E-17 0.258819045102521
0.6830127018922194 0.6830127018922192 0.2588190451025211
3.5159402294998956E-16 0.9659258262890683 0.2588190451025208
-0.6830127018922193 0.6830127018922193 0.2588190451025212

