# vtk DataFile Version 4.1
Header:
ASCII

DATASET UNSTRUCTURED_GRID
POINTS 88 double
0.1 0 0
0.15690355937288492 0.023570226039551587 0
0.05690355937288492 0.023570226039551587 0
0.17071067811865476 0.07071067811865477 0
0.1276142374915397 0.09428090415820635 0
0.07071067811865477 0.07071067811865477 0
0.09428090415820635 0.1276142374915397 0
0.023570226039551587 0.05690355937288492 0
0.07071067811865477 0.17071067811865476 0
0.023570226039551594 0.15690355937288492 0
6.123233995736766E-18 0.1 0
-0.023570226039551577 0.15690355937288492 0
-0.023570226039551584 0.05690355937288492 0
-0.07071067811865475 0.17071067811865476 0
-0.09428090415820634 0.1276142374915397 0
-0.07071067811865475 0.07071067811865477 0
-0.12761423749153966 0.09428090415820636 0
-0.05690355937288492 0.023570226039551594 0
-0.17071067811865476 0.07071067811865478 0
-0.15690355937288492 0.023570226039551608 0
-0.1 1.2246467991473533E-17 0
-0.15690355937288492 -0.023570226039551567 0
-0.05690355937288492 -0.02357022603955158 0
-0.17071067811865476 -0.07071067811865474 0
-0.1276142374915397 -0.09428090415820634 0
-0.07071067811865477 -0.07071067811865475 0
-0.09428090415820636 -0.12761423749153966 0
-0.023570226039551594 -0.05690355937288492 0
-0.07071067811865478 -0.17071067811865476 0
-0.02357022603955161 -0.15690355937288492 0
-1.8369701987210297E-17 -0.1 0
0.023570226039551556 -0.15690355937288492 0
0.023570226039551573 -0.05690355937288492 0
0.07071067811865472 -0.17071067811865476 0
0.09428090415820631 -0.1276142374915397 0
0.07071067811865474 -0.07071067811865477 0
0.12761423749153966 -0.09428090415820635 0
0.05690355937288492 -0.023570226039551587 0
0.17071067811865476 -0.07071067811865477 0
0.15690355937288492 -0.023570226039551587 0
0.20596707066159348 0.04389299783298012 0.0064704761275630185
0.17667774878024822 0.11460367595163488 0.0064704761275630185
0.24829629131445344 -1.1610492526160781E-17 0.012940952255126037
0.25426336197604693 0.043892997832980105 0.019411428382689055
0.2531576045277192 0.10486131321326571 0.025881904510252074
0.2108283838748592 0.14875431104624584 0.019411428382689055
0.17557199133192047 0.17557199133192047 0.012940952255126037
0.11460367595163488 0.17667774878024822 0.0064704761275630185
0.043892997832980125 0.20596707066159348 0.0064704761275630185
0.14875431104624584 0.2108283838748592 0.019411428382689055
0.10486131321326574 0.2531576045277192 0.025881904510252074
0.043892997832980125 0.25426336197604693 0.019411428382689055
1.4181550079166997E-17 0.24829629131445344 0.012940952255126037
-0.04389299783298011 0.20596707066159348 0.0064704761275630185
-0.11460367595163487 0.17667774878024822 0.0064704761275630185
-0.04389299783298011 0.25426336197604693 0.019411428382689055
-0.10486131321326571 0.2531576045277192 0.025881904510252074
-0.14875431104624584 0.2108283838748592 0.019411428382689055
-0.17557199133192047 0.17557199133192047 0.012940952255126037
-0.17667774878024822 0.1146036759516349 0.0064704761275630185
-0.20596707066159348 0.043892997832980146 0.0064704761275630185
-0.2108283838748592 0.14875431104624587 0.019411428382689055
-0.2531576045277192 0.10486131321326574 0.025881904510252074
-0.25426336197604693 0.043892997832980146 0.019411428382689055
-0.24829629131445344 2.836310015833399E-17 0.012940952255126037
-0.20596707066159348 -0.0438929978329801 0.0064704761275630185
-0.17667774878024825 -0.11460367595163487 0.0064704761275630185
-0.25426336197604693 -0.0438929978329801 0.019411428382689055
-0.2531576045277192 -0.10486131321326571 0.025881904510252074
-0.21082838387485922 -0.14875431104624584 0.019411428382689055
-0.1755719913319205 -0.17557199133192047 0.012940952255126037
-0.1146036759516349 -0.17667774878024822 0.0064704761275630185
-0.04389299783298016 -0.20596707066159348 0.0064704761275630185
-0.14875431104624587 -0.2108283838748592 0.019411428382689055
-0.10486131321326576 -0.2531576045277192 0.025881904510252074
-0.04389299783298016 -0.25426336197604693 0.019411428382689055
-4.254465023750098E-17 -0.24829629131445344 0.012940952255126037
0.043892997832980084 -0.20596707066159348 0.0064704761275630185
0.11460367595163484 -0.17667774878024822 0.0064704761275630185
0.043892997832980084 -0.25426336197604693 0.019411428382689055
0.10486131321326568 -0.2531576045277192 0.025881904510252074
0.1487543110462458 -0.2108283838748592 0.019411428382689055
0.17557199133192045 -0.17557199133192047 0.012940952255126037
0.17667774878024822 -0.11460367595163488 0.0064704761275630185
0.20596707066159348 -0.04389299783298012 0.0064704761275630185
0.2108283838748592 -0.14875431104624584 0.019411428382689055
0.2531576045277191 -0.10486131321326574 0.025881904510252074
0.25426336197604693 -0.04389299783298013 0.019411428382689055


POINT_DATA 88
VECTORS normals double
0 0 1
0 0 1
0 0 1
-0.1117399326631257 -0.046284195567723035 0.9926590354643879
0 0 1
0 0 1
0 0 1
0 0 1
-0.046284195567723035 -0.1117399326631257 0.9926590354643879
0 0 1
0 0 1
0 0 1
0 0 1
0.046284195567723056 -0.11173993266312574 0.9926590354643879
0 0 0.9999999999999999
0 0 0.9999999999999999
0 0 1
0 0 1
0.11173993266312572 -0.04628419556772307 0.9926590354643879
0 0 1
0 0 1
0 0 1
0 0 1
0.11173993266312568 0.04628419556772303 0.9926590354643879
0 0 1
0 0 0.9999999999999999
0 0 1
0 0 1
0.04628419556772307 0.11173993266312572 0.9926590354643879
0 0 1
0 0 1
0 0 1
0 0 1
-0.046284195567723056 0.11173993266312574 0.9926590354643879
0 0 1
0 0 1
0 0 1
0 0 1
-0.11173993266312571 0.046284195567723084 0.9926590354643879
0 0 1
-0.25734441421507176 -0.10659554656884225 0.9604224288946981
-0.25734441421507187 -0.1065955465688422 0.960422428894698
-0.25881904510252074 0 0.9659258262890684
-0.2573444142150716 -0.10659554656884221 0.960422428894698
-0.25734441421507165 -0.10659554656884221 0.9604224288946983
-0.2573444142150717 -0.10659554656884217 0.960422428894698
-0.18301270189221944 -0.18301270189221938 0.9659258262890684
-0.1065955465688422 -0.2573444142150718 0.960422428894698
-0.10659554656884225 -0.2573444142150717 0.960422428894698
-0.10659554656884221 -0.2573444142150717 0.9604224288946981
-0.10659554656884222 -0.2573444142150716 0.9604224288946983
-0.10659554656884225 -0.25734441421507165 0.9604224288946983
0 -0.2588190451025207 0.9659258262890684
0.10659554656884222 -0.2573444142150717 0.9604224288946981
0.1065955465688422 -0.2573444142150718 0.960422428894698
0.10659554656884222 -0.25734441421507165 0.9604224288946983
0.10659554656884221 -0.25734441421507165 0.9604224288946983
0.10659554656884217 -0.25734441421507165 0.960422428894698
0.18301270189221938 -0.18301270189221944 0.9659258262890684
0.2573444142150717 -0.10659554656884222 0.9604224288946981
0.2573444142150717 -0.10659554656884228 0.9604224288946983
0.2573444142150717 -0.10659554656884222 0.9604224288946981
0.25734441421507165 -0.10659554656884224 0.9604224288946983
0.25734441421507165 -0.10659554656884224 0.9604224288946983
0.2588190451025207 -3.705154213700782E-17 0.9659258262890684
0.2573444142150717 0.10659554656884214 0.9604224288946982
0.25734441421507176 0.1065955465688422 0.9604224288946983
0.2573444142150717 0.1065955465688422 0.9604224288946983
0.25734441421507165 0.10659554656884217 0.960422428894698
0.25734441421507165 0.10659554656884217 0.960422428894698
0.18301270189221935 0.1830127018922193 0.9659258262890684
0.10659554656884222 0.2573444142150717 0.9604224288946981
0.10659554656884222 0.25734441421507165 0.9604224288946981
0.1065955465688422 0.2573444142150716 0.960422428894698
0.10659554656884222 0.2573444142150716 0.9604224288946983
0.10659554656884224 0.2573444142150716 0.9604224288946983
0 0.2588190451025207 0.9659258262890684
-0.10659554656884222 0.2573444142150717 0.9604224288946981
-0.1065955465688422 0.2573444142150718 0.960422428894698
-0.10659554656884222 0.25734441421507165 0.9604224288946983
-0.10659554656884221 0.25734441421507165 0.9604224288946983
-0.10659554656884217 0.25734441421507165 0.960422428894698
-0.1830127018922193 0.18301270189221938 0.9659258262890684
-0.25734441421507165 0.10659554656884222 0.960422428894698
-0.2573444142150717 0.10659554656884226 0.9604224288946981
-0.25734441421507165 0.10659554656884225 0.9604224288946983
-0.25734441421507165 0.10659554656884226 0.9604224288946983
-0.2573444142150716 0.10659554656884224 0.960422428894698

