# vtk DataFile Version 4.1
Header:
ASCII

DATASET UNSTRUCTURED_GRID
POINTS 8 double
17.703703198696125 -2.5509607264990505E-15 10.075881904510249
12.518408583912002 12.518408583912002 10.075881904510247
2.2811169365931677E-15 17.703703198696125 10.075881904510249
-12.518408583912002 12.518408583912002 10.07588190451025
-17.703703198696125 7.912322292156853E-16 10.075881904510249
-12.518408583912002 -12.518408583911999 10.07588190451025
-5.449007465431744E-16 -17.703703198696125 10.075881904510249
12.518408583912 -12.518408583912004 10.075881904510247


POINT_DATA 8
VECTORS normals double
-0.49999999999999983 3.3927629222845524E-17 0.8660254037844387
-0.3535533905932736 -0.3535533905932736 0.8660254037844387
-5.089144383426829E-17 -0.49999999999999983 0.8660254037844387
0.3535533905932737 -0.3535533905932737 0.8660254037844387
0.49999999999999983 -5.937335113997967E-17 0.8660254037844387
0.3535533905932738 0.3535533905932737 0.8660254037844387
7.633716575140243E-17 0.49999999999999983 0.8660254037844387
-0.35355339059327356 0.3535533905932736 0.8660254037844388

