# vtk DataFile Version 4.1
Header:
ASCII

DATASET UNSTRUCTURED_GRID
POINTS 16 double
2.2035242641891992 0.12487215974821991 6.769293214230044
3.371885201340131 1.4698289987779043 13.20879872282383
1.4698289987779043 1.6464249006566571 6.769293214230044
1.3449568390296844 3.4236089434706627 13.20879872282383
-0.12487215974821965 2.203524264189199 6.769293214230044
-1.469828998777903 3.371885201340131 13.20879872282383
-1.6464249006566563 1.4698289987779047 6.7692932142300455
-3.423608943470662 1.3449568390296849 13.20879872282383
-2.203524264189199 -0.12487215974821987 6.7692932142300455
-3.3718852013401297 -1.4698289987779036 13.20879872282383
-1.4698289987779036 -1.6464249006566565 6.769293214230044
-1.3449568390296835 -3.4236089434706614 13.208798722823834
0.12487215974822004 -2.2035242641891974 6.769293214230046
1.4698289987779036 -3.3718852013401297 13.208798722823834
1.6464249006566563 -1.4698289987779047 6.769293214230044
3.4236089434706627 -1.3449568390296849 13.20879872282383


POINT_DATA 16
VECTORS normals double
-0.8968088177445295 -0.3714703751655652 0.2402991984797569
-0.8968088177445295 -0.37147037516556497 0.2402991984797569
-0.3714703751655653 -0.8968088177445294 0.24029919847975698
-0.3714703751655647 -0.8968088177445297 0.240299198479757
0.3714703751655653 -0.8968088177445293 0.24029919847975678
0.37147037516556436 -0.8968088177445297 0.24029919847975684
0.8968088177445294 -0.3714703751655654 0.24029919847975692
0.8968088177445295 -0.3714703751655648 0.24029919847975686
0.8968088177445294 0.3714703751655653 0.2402991984797568
0.8968088177445295 0.37147037516556497 0.24029919847975684
0.3714703751655655 0.8968088177445294 0.24029919847975692
0.371470375165564 0.89680881774453 0.24029919847975675
-0.3714703751655651 0.8968088177445296 0.24029919847975664
-0.3714703751655637 0.8968088177445303 0.2402991984797569
-0.8968088177445293 0.37147037516556525 0.2402991984797569
-0.8968088177445293 0.37147037516556525 0.2402991984797569

