# vtk DataFile Version 4.1
Header:
ASCII

DATASET UNSTRUCTURED_GRID
POINTS 16 double
5.123635698659693 0.10698662333203658 4.860637790539221
8.412653721616396 3.5473065799974073 9.574682998449537
0.10698662333203718 5.123635698659693 4.860637790539221
3.5473065799974095 8.412653721616396 9.574682998449537
-0.10698662333203678 5.123635698659693 4.860637790539221
-3.5473065799974073 8.412653721616396 9.574682998449537
-3.6986085137060756 3.5473065799974077 4.860637790539223
-8.456969031993026 3.440319956665371 9.57468299844954
-5.123635698659693 -0.10698662333203707 4.860637790539223
-8.412653721616396 -3.547306579997407 9.57468299844954
-3.5473065799974077 -3.698608513706075 4.860637790539223
-3.4403199566653715 -8.456969031993026 9.574682998449537
0.10698662333203661 -5.123635698659693 4.860637790539221
3.5473065799974077 -8.412653721616396 9.574682998449536
3.698608513706077 -3.5473065799974095 4.860637790539221
8.456969031993028 -3.4403199566653733 9.574682998449536


POINT_DATA 16
VECTORS normals double
-0.6785983445458467 -0.2810846377148202 0.6785983445458472
-0.6785983445458468 -0.28108463771481995 0.6785983445458474
-0.28108463771482023 -0.6785983445458469 0.6785983445458473
-0.2810846377148203 -0.6785983445458468 0.6785983445458474
0.28108463771482034 -0.6785983445458469 0.6785983445458473
0.2810846377148206 -0.6785983445458468 0.6785983445458471
0.6785983445458469 -0.28108463771482034 0.6785983445458471
0.6785983445458469 -0.2810846377148205 0.6785983445458473
0.6785983445458469 0.28108463771482034 0.6785983445458472
0.6785983445458468 0.28108463771482056 0.6785983445458471
0.2810846377148205 0.678598344545847 0.6785983445458471
0.28108463771482084 0.6785983445458467 0.6785983445458471
-0.28108463771482006 0.6785983445458469 0.6785983445458473
-0.28108463771481984 0.6785983445458469 0.6785983445458476
-0.6785983445458466 0.28108463771482023 0.6785983445458476
-0.6785983445458468 0.28108463771482 0.6785983445458474

