# vtk DataFile Version 4.1
Header:
ASCII

DATASET UNSTRUCTURED_GRID
POINTS 8 double
0.5297877056362577 -5.17988656211414E-17 0.4297877056362575
0.37461647924466035 0.37461647924466035 0.4297877056362575
4.130209702754654E-17 0.5297877056362577 0.42978770563625746
-0.37461647924466024 0.37461647924466035 0.42978770563625757
-0.5297877056362577 3.712440761260116E-17 0.42978770563625757
-0.3746164792446603 -0.37461647924466024 0.4297877056362575
-3.116156362200822E-17 -0.5297877056362577 0.4297877056362575
0.37461647924466024 -0.37461647924466046 0.42978770563625746


POINT_DATA 8
VECTORS tangent_vectors double
1.8272241583820795E-16 0.9999999999999999 7.409064243941565E-17
-0.7071067811865474 0.7071067811865477 -7.409064243941567E-17
-1 0 7.409064243941569E-17
-0.7071067811865476 -0.7071067811865476 1.4818128487883137E-16
-4.568060395955202E-17 -1 -7.409064243941567E-17
0.7071067811865475 -0.7071067811865477 -7.409064243941569E-17
1 -3.197642277168642E-16 -7.409064243941569E-17
0.7071067811865476 0.7071067811865475 3.042939497680664E-32


VECTORS normal_vectors double
-1 2.3153325762317406E-17 3.704532121970785E-16
-0.7071067811865477 -0.7071067811865475 1.0408162360158313E-15
4.6306651524634824E-17 -1 6.945997728695224E-16
0.7071067811865476 -0.7071067811865477 6.13021421057185E-16
1 -1.0418996593042829E-16 3.2414656067244355E-16
0.7071067811865477 0.7071067811865475 4.741014664832807E-16
3.588765493159198E-16 1 9.261330304926961E-17
-0.7071067811865475 0.7071067811865476 3.351815119093764E-16


VECTORS extension_vectors double
3.7045321219707845E-16 -7.409064243941571E-17 0.9999999999999999
6.835782227644739E-16 7.883582141472309E-16 1
7.409064243941569E-17 6.945997728695224E-16 1
-3.286916124593921E-16 5.382515952249066E-16 1.0000000000000002
-3.2414656067244355E-16 -7.409064243941566E-17 1
-2.828503662294359E-16 -3.876303576121931E-16 1
7.409064243941566E-17 -9.261330304926964E-17 1
2.370091199994796E-16 -2.3700911999947964E-16 1


