# vtk DataFile Version 4.1
Header:
ASCII

DATASET UNSTRUCTURED_GRID
POINTS 8 double
19.615109108410277 -7.271498916644536E-16 5.202262806560666
13.869976664270922 13.869976664270917 5.202262806560666
-6.878122744452716E-16 19.615109108410277 5.202262806560666
-13.869976664270917 13.869976664270922 5.202262806560666
-19.615109108410277 7.36162170945853E-16 5.202262806560666
-13.869976664270922 -13.869976664270915 5.202262806560666
6.555790101115507E-16 -19.615109108410277 5.202262806560666
13.869976664270917 -13.869976664270922 5.202262806560666


POINT_DATA 8
VECTORS normals double
-0.2588190451025207 1.1255824737891458E-17 0.9659258262890684
-0.18301270189221935 -0.1830127018922193 0.9659258262890684
-5.627912368945728E-18 -0.2588190451025207 0.9659258262890684
0.18301270189221933 -0.18301270189221935 0.9659258262890684
0.2588190451025207 -2.2511649475782916E-17 0.9659258262890684
0.18301270189221933 0.1830127018922193 0.9659258262890684
5.627912368945728E-18 0.2588190451025207 0.9659258262890684
-0.18301270189221924 0.1830127018922193 0.9659258262890684

