# vtk DataFile Version 4.1
Header:
ASCII

DATASET UNSTRUCTURED_GRID
POINTS 8 double
0.5297877056362577 -5.1031489244558297E-17 0.32978770563625753
0.3746164792446603 0.3746164792446603 0.3297877056362575
3.158806114217668E-17 0.5297877056362577 0.3297877056362575
-0.37461647924466024 0.3746164792446603 0.32978770563625753
-0.5297877056362577 3.575036970746026E-17 0.32978770563625753
-0.3746164792446603 -0.3746164792446602 0.32978770563625753
-4.0322147005175377E-17 -0.5297877056362577 0.3297877056362575
0.37461647924466024 -0.3746164792446604 0.3297877056362575


POINT_DATA 8
VECTORS tangent_vectors double
9.136120791910402E-17 1 0
-0.7071067811865474 0.7071067811865477 -7.409064243941569E-17
-1 -4.5680603959552024E-17 7.40906424394157E-17
-0.7071067811865477 -0.7071067811865475 7.409064243941569E-17
-9.136120791910407E-17 -1 0
0.7071067811865475 -0.7071067811865477 -7.40906424394157E-17
1 -2.7408362375731215E-16 -7.409064243941569E-17
0.7071067811865477 0.7071067811865475 7.40906424394157E-17


VECTORS normal_vectors double
-0.9659258262890683 5.859900382499821E-17 0.25881904510252113
-0.6830127018922194 -0.6830127018922191 0.2588190451025212
1.5235740994499544E-16 -0.9659258262890682 0.258819045102521
0.6830127018922192 -0.6830127018922194 0.2588190451025212
0.9659258262890682 -3.5159402294998936E-17 0.258819045102521
0.6830127018922194 0.6830127018922192 0.2588190451025211
3.5159402294998956E-16 0.9659258262890683 0.2588190451025208
-0.6830127018922193 0.6830127018922193 0.2588190451025212


VECTORS extension_vectors double
0.25881904510252113 -2.3646020593035394E-17 0.9659258262890683
0.1830127018922196 0.18301270189221963 0.9659258262890682
5.974305472206282E-17 0.258819045102521 0.9659258262890682
-0.18301270189221955 0.18301270189221971 0.9659258262890683
-0.258819045102521 2.3646020593035397E-17 0.9659258262890682
-0.18301270189221952 -0.18301270189221958 0.9659258262890683
6.280032394744034E-19 -0.2588190451025208 0.9659258262890683
0.18301270189221955 -0.18301270189221971 0.9659258262890683


