# vtk DataFile Version 4.1
Header:
ASCII

DATASET UNSTRUCTURED_GRID
POINTS 8 double
0.5039058011260056 -4.272275194780502E-17 0.23319512300735068
0.35631520905543834 0.35631520905543834 0.23319512300735068
2.5891335400615433E-17 0.5039058011260056 0.23319512300735068
-0.3563152090554383 0.35631520905543834 0.2331951230073507
-0.5039058011260056 3.467661498025079E-17 0.23319512300735068
-0.35631520905543834 -0.35631520905543823 0.2331951230073507
-4.705254534303474E-17 -0.5039058011260056 0.23319512300735068
0.3563152090554383 -0.3563152090554384 0.23319512300735062


POINT_DATA 8
VECTORS tangent_vectors double
5.0493662453698785E-17 1 7.789612935469863E-17
-0.7071067811865474 0.7071067811865476 0
-1 5.049366245369881E-17 3.894806467734932E-17
-0.7071067811865476 -0.7071067811865474 0
-7.574049368054823E-17 -1 0
0.7071067811865474 -0.7071067811865477 0
1 -1.7672781858794582E-16 -1.16844194032048E-16
0.7071067811865476 0.7071067811865474 0


VECTORS normal_vectors double
-0.8660254037844385 2.4961747104653473E-17 0.5000000000000003
-0.6123724356957945 -0.6123724356957944 0.5000000000000001
0 -0.8660254037844385 0.5
0.6123724356957944 -0.6123724356957945 0.5
0.8660254037844385 -9.984698841861393E-17 0.5000000000000003
0.6123724356957945 0.6123724356957944 0.5
2.1217485038955455E-16 0.8660254037844385 0.5000000000000002
-0.6123724356957942 0.6123724356957944 0.5000000000000004


VECTORS extension_vectors double
0.5000000000000003 -9.270685810449714E-17 0.8660254037844385
0.35355339059327384 0.35355339059327373 0.8660254037844384
5.897684466567328E-17 0.5 0.8660254037844385
-0.3535533905932737 0.3535533905932738 0.8660254037844384
-0.5000000000000003 3.787024684027414E-17 0.8660254037844385
-0.35355339059327384 -0.3535533905932737 0.8660254037844385
1.28261310224987E-17 -0.5000000000000002 0.8660254037844385
0.353553390593274 -0.3535533905932741 0.8660254037844383


