# vtk DataFile Version 4.1
Header:
ASCII

DATASET UNSTRUCTURED_GRID
POINTS 24 double
17.241778489984128 7.141778489984127 0
10.2 -2.40401327103271E-15 0
10.170710678118654 0.07071067811865236 0
7.141778489984129 17.241778489984128 0
7.212489168102784 7.212489168102784 0
7.141778489984129 7.241778489984129 0
-7.141778489984129 17.241778489984128 0
4.129153464969253E-16 10.2 0
-0.07071067811865435 10.170710678118654 0
-17.241778489984128 7.14177848998413 0
-7.212489168102784 7.212489168102784 0
-7.241778489984129 7.141778489984129 0
-17.241778489984128 -7.141778489984128 0
-10.2 8.258306929938505E-16 0
-10.170710678118654 -0.07071067811865393 0
-7.141778489984131 -17.241778489984128 0
-7.212489168102785 -7.212489168102784 0
-7.14177848998413 -7.241778489984129 0
7.141778489984129 -17.241778489984128 0
-1.2387460394907757E-15 -10.2 0
0.07071067811865352 -10.170710678118654 0
17.241778489984128 -7.141778489984132 0
7.212489168102785 -7.212489168102784 0
7.24177848998413 -7.141778489984129 0


POINT_DATA 24
VECTORS normals double
0 0 1
0 0 1
0 0 1
0 0 1
0 0 1
0 0 1
0 0 1
0 0 1
0 0 1
0 0 1
0 0 1
0 0 1
0 0 1
0 0 1
0 0 1
0 0 1
0 0 1
0 0 1
0 0 1
0 0 1
0 0 1
0 0 1
0 0 1
0 0 1

