# vtk DataFile Version 4.1
Header:
ASCII

DATASET UNSTRUCTURED_GRID
POINTS 8 double
0.29659258262890686 -2.3220985052321563E-17 0.025881904510252074
0.20972262642653144 0.20972262642653144 0.025881904510252074
1.6116632166860462E-17 0.29659258262890686 0.025881904510252074
-0.20972262642653144 0.20972262642653144 0.025881904510252074
-0.29659258262890686 3.223326433372092E-17 0.025881904510252074
-0.20972262642653147 -0.20972262642653144 0.025881904510252074
-4.8349896500581376E-17 -0.29659258262890686 0.025881904510252074
0.20972262642653142 -0.20972262642653144 0.025881904510252074


POINT_DATA 8
VECTORS tangent_vectors double
3.6438041485882693E-17 0.9999999999999999 0
-0.7071067811865474 0.7071067811865477 0
-0.9999999999999999 -3.6438041485882693E-17 0
-0.7071067811865477 -0.7071067811865474 0
-3.6438041485882693E-17 -0.9999999999999999 0
0.7071067811865472 -0.7071067811865477 0
0.9999999999999999 3.6438041485882693E-17 0
0.7071067811865477 0.7071067811865474 0


VECTORS normal_vectors double
-0.2588190451025207 1.1255824737891458E-17 0.9659258262890684
-0.18301270189221935 -0.1830127018922193 0.9659258262890684
-5.627912368945728E-18 -0.2588190451025207 0.9659258262890684
0.18301270189221933 -0.18301270189221935 0.9659258262890684
0.2588190451025207 -2.2511649475782916E-17 0.9659258262890684
0.18301270189221933 0.1830127018922193 0.9659258262890684
5.627912368945728E-18 0.2588190451025207 0.9659258262890684
-0.18301270189221924 0.1830127018922193 0.9659258262890684


VECTORS extension_vectors double
0.9659258262890683 -3.51964453306066E-17 0.25881904510252063
0.6830127018922195 0.6830127018922193 0.25881904510252074
-3.51964453306066E-17 0.9659258262890683 0.25881904510252063
-0.6830127018922193 0.6830127018922195 0.25881904510252074
-0.9659258262890683 3.51964453306066E-17 0.25881904510252063
-0.6830127018922195 -0.6830127018922192 0.25881904510252074
3.51964453306066E-17 -0.9659258262890683 0.25881904510252063
0.6830127018922193 -0.6830127018922195 0.2588190451025207


