# vtk DataFile Version 4.1
Header:
ASCII

DATASET UNSTRUCTURED_GRID
POINTS 16 double
6.7071414391552375 0.0699075421421769 1.7513422051937235
11.231602799702577 4.693233096899149 3.476802505877195
4.693233096899151 4.792097291108785 1.7513422051937235
4.623325554756974 11.260559451770034 3.476802505877195
-0.06990754214217737 6.7071414391552375 1.7513422051937235
-4.693233096899149 11.231602799702577 3.476802505877195
-4.792097291108785 4.693233096899151 1.7513422051937235
-11.260559451770034 4.623325554756974 3.476802505877195
-6.7071414391552375 -0.06990754214217688 1.7513422051937235
-11.231602799702577 -4.6932330968991485 3.476802505877195
-4.693233096899151 -4.792097291108784 1.7513422051937235
-4.623325554756974 -11.260559451770034 3.476802505877195
0.06990754214217734 -6.7071414391552375 1.7513422051937235
4.693233096899149 -11.231602799702577 3.476802505877195
4.792097291108785 -4.693233096899151 1.7513422051937235
11.260559451770034 -4.623325554756974 3.476802505877195


POINT_DATA 16
VECTORS normals double
-0.2573444142150717 -0.10659554656884222 0.9604224288946981
-0.2573444142150717 -0.10659554656884217 0.960422428894698
-0.10659554656884225 -0.2573444142150717 0.9604224288946981
-0.10659554656884226 -0.2573444142150716 0.9604224288946981
0.10659554656884222 -0.2573444142150717 0.9604224288946983
0.10659554656884217 -0.25734441421507165 0.960422428894698
0.2573444142150717 -0.10659554656884225 0.9604224288946981
0.2573444142150716 -0.10659554656884226 0.9604224288946981
0.2573444142150717 0.1065955465688422 0.9604224288946981
0.25734441421507165 0.10659554656884217 0.960422428894698
0.10659554656884225 0.2573444142150717 0.9604224288946981
0.1065955465688423 0.2573444142150716 0.9604224288946981
-0.10659554656884222 0.2573444142150717 0.9604224288946983
-0.10659554656884217 0.25734441421507165 0.960422428894698
-0.2573444142150717 0.10659554656884228 0.9604224288946981
-0.2573444142150716 0.10659554656884226 0.9604224288946981

