# vtk DataFile Version 4.1
Header:
ASCII

DATASET UNSTRUCTURED_GRID
POINTS 24 double
4.870519562387866 2.017435258544526 19.64830423141762
2.0174352585445265 4.870519562387866 19.64830423141762
-2.0174352585445248 4.870519562387866 19.64830423141762
-4.870519562387864 2.0174352585445274 19.64830423141762
-4.870519562387864 -2.017435258544525 19.64830423141762
-2.017435258544525 -4.870519562387862 19.648304231417622
2.017435258544525 -4.870519562387864 19.648304231417622
4.870519562387865 -2.0174352585445274 19.64830423141762
3.1179781566614686 -2.874916951749122E-16 9.989045968526938
2.2047434981668563 2.2047434981668568 9.989045968526938
6.290186083628048E-16 3.1179781566614677 9.989045968526938
-2.2047434981668554 2.204743498166857 9.989045968526938
-3.1179781566614677 2.7221057563781424E-16 9.989045968526938
-2.2047434981668554 -2.204743498166856 9.989045968526938
-3.404211461043134E-17 -3.117978156661466 9.989045968526941
2.2047434981668554 -2.204743498166857 9.989045968526938
3.04039254346567 0.1873082396223299 9.989045968526938
2.017435258544526 2.2823291113626554 9.989045968526938
-0.1873082396223295 3.040392543465669 9.989045968526938
-2.282329111362654 2.017435258544527 9.989045968526938
-3.040392543465669 -0.18730823962232984 9.989045968526938
-2.017435258544525 -2.2823291113626545 9.989045968526938
0.1873082396223301 -3.0403925434656673 9.989045968526941
2.282329111362654 -2.017435258544527 9.989045968526938


POINT_DATA 24
VECTORS normals double
-0.8968088177445293 -0.371470375165565 0.24029919847975753
-0.37147037516556525 -0.8968088177445295 0.24029919847975661
0.37147037516556525 -0.8968088177445294 0.2402991984797574
0.8968088177445294 -0.3714703751655654 0.2402991984797568
0.8968088177445294 0.37147037516556525 0.24029919847975734
0.37147037516556564 0.8968088177445295 0.2402991984797565
-0.371470375165565 0.8968088177445296 0.24029919847975661
-0.8968088177445293 0.37147037516556525 0.240299198479757
-0.9659258262890683 5.859900382499821E-17 0.25881904510252113
-0.6830127018922194 -0.6830127018922191 0.2588190451025212
1.5235740994499544E-16 -0.9659258262890682 0.258819045102521
0.6830127018922192 -0.6830127018922194 0.2588190451025212
0.9659258262890682 -3.5159402294998936E-17 0.258819045102521
0.6830127018922194 0.6830127018922192 0.2588190451025211
3.5159402294998956E-16 0.9659258262890683 0.2588190451025208
-0.6830127018922193 0.6830127018922193 0.2588190451025212
-0.8968088177445293 -0.371470375165565 0.24029919847975753
-0.37147037516556525 -0.8968088177445295 0.24029919847975661
0.37147037516556525 -0.8968088177445294 0.2402991984797574
0.8968088177445294 -0.3714703751655654 0.2402991984797568
0.8968088177445294 0.37147037516556525 0.24029919847975734
0.37147037516556564 0.8968088177445295 0.2402991984797565
-0.371470375165565 0.8968088177445296 0.24029919847975661
-0.8968088177445293 0.37147037516556525 0.240299198479757

