# vtk DataFile Version 4.1
Header:
ASCII

DATASET UNSTRUCTURED_GRID
POINTS 184 double
0.1 0 0
0.15690355937288492 0.023570226039551587 0
0.05690355937288492 0.023570226039551587 0
0.17071067811865476 0.07071067811865477 0
0.1276142374915397 0.09428090415820635 0
0.07071067811865477 0.07071067811865477 0
0.09428090415820635 0.1276142374915397 0
0.023570226039551587 0.05690355937288492 0
0.07071067811865477 0.17071067811865476 0
0.023570226039551594 0.15690355937288492 0
6.123233995736766E-18 0.1 0
-0.023570226039551577 0.15690355937288492 0
-0.023570226039551584 0.05690355937288492 0
-0.07071067811865475 0.17071067811865476 0
-0.09428090415820634 0.1276142374915397 0
-0.07071067811865475 0.07071067811865477 0
-0.12761423749153966 0.09428090415820636 0
-0.05690355937288492 0.023570226039551594 0
-0.17071067811865476 0.07071067811865478 0
-0.15690355937288492 0.023570226039551608 0
-0.1 1.2246467991473533E-17 0
-0.15690355937288492 -0.023570226039551567 0
-0.05690355937288492 -0.02357022603955158 0
-0.17071067811865476 -0.07071067811865474 0
-0.1276142374915397 -0.09428090415820634 0
-0.07071067811865477 -0.07071067811865475 0
-0.09428090415820636 -0.12761423749153966 0
-0.023570226039551594 -0.05690355937288492 0
-0.07071067811865478 -0.17071067811865476 0
-0.02357022603955161 -0.15690355937288492 0
-1.8369701987210297E-17 -0.1 0
0.023570226039551556 -0.15690355937288492 0
0.023570226039551573 -0.05690355937288492 0
0.07071067811865472 -0.17071067811865476 0
0.09428090415820631 -0.1276142374915397 0
0.07071067811865474 -0.07071067811865477 0
0.12761423749153966 -0.09428090415820635 0
0.05690355937288492 -0.023570226039551587 0
0.17071067811865476 -0.07071067811865477 0
0.15690355937288492 -0.023570226039551587 0
0.20596707066159348 0.04389299783298012 0.0064704761275630185
0.17667774878024822 0.11460367595163488 0.0064704761275630185
0.24829629131445344 -1.1610492526160781E-17 0.012940952255126037
0.25426336197604693 0.043892997832980105 0.019411428382689055
0.2531576045277192 0.10486131321326571 0.025881904510252074
0.2108283838748592 0.14875431104624584 0.019411428382689055
0.17557199133192047 0.17557199133192047 0.012940952255126037
0.11460367595163488 0.17667774878024822 0.0064704761275630185
0.043892997832980125 0.20596707066159348 0.0064704761275630185
0.14875431104624584 0.2108283838748592 0.019411428382689055
0.10486131321326574 0.2531576045277192 0.025881904510252074
0.043892997832980125 0.25426336197604693 0.019411428382689055
1.4181550079166997E-17 0.24829629131445344 0.012940952255126037
-0.04389299783298011 0.20596707066159348 0.0064704761275630185
-0.11460367595163487 0.17667774878024822 0.0064704761275630185
-0.04389299783298011 0.25426336197604693 0.019411428382689055
-0.10486131321326571 0.2531576045277192 0.025881904510252074
-0.14875431104624584 0.2108283838748592 0.019411428382689055
-0.17557199133192047 0.17557199133192047 0.012940952255126037
-0.17667774878024822 0.1146036759516349 0.0064704761275630185
-0.20596707066159348 0.043892997832980146 0.0064704761275630185
-0.2108283838748592 0.14875431104624587 0.019411428382689055
-0.2531576045277192 0.10486131321326574 0.025881904510252074
-0.25426336197604693 0.043892997832980146 0.019411428382689055
-0.24829629131445344 2.836310015833399E-17 0.012940952255126037
-0.20596707066159348 -0.0438929978329801 0.0064704761275630185
-0.17667774878024825 -0.11460367595163487 0.0064704761275630185
-0.25426336197604693 -0.0438929978329801 0.019411428382689055
-0.2531576045277192 -0.10486131321326571 0.025881904510252074
-0.21082838387485922 -0.14875431104624584 0.019411428382689055
-0.1755719913319205 -0.17557199133192047 0.012940952255126037
-0.1146036759516349 -0.17667774878024822 0.0064704761275630185
-0.04389299783298016 -0.20596707066159348 0.0064704761275630185
-0.14875431104624587 -0.2108283838748592 0.019411428382689055
-0.10486131321326576 -0.2531576045277192 0.025881904510252074
-0.04389299783298016 -0.25426336197604693 0.019411428382689055
-4.254465023750098E-17 -0.24829629131445344 0.012940952255126037
0.043892997832980084 -0.20596707066159348 0.0064704761275630185
0.11460367595163484 -0.17667774878024822 0.0064704761275630185
0.043892997832980084 -0.25426336197604693 0.019411428382689055
0.10486131321326568 -0.2531576045277192 0.025881904510252074
0.1487543110462458 -0.2108283838748592 0.019411428382689055
0.17557199133192045 -0.17557199133192047 0.012940952255126037
0.17667774878024822 -0.11460367595163488 0.0064704761275630185
0.20596707066159348 -0.04389299783298012 0.0064704761275630185
0.2108283838748592 -0.14875431104624584 0.019411428382689055
0.2531576045277191 -0.10486131321326574 0.025881904510252074
0.25426336197604693 -0.04389299783298013 0.019411428382689055
0.2933550665718159 0.06008531205283027 0.03838190451025207
0.24992008847062822 0.164946625266096 0.03838190451025207
0.3398938528181288 -2.4775181738716653E-17 0.05088190451025207
0.3366563367610379 0.06008531205283027 0.06338190451025207
0.32707749650173085 0.13547993499805544 0.07588190451025206
0.280538710255418 0.19556524705088574 0.06338190451025208
0.2403412482113212 0.24034124821132116 0.050881904510252075
0.16494662526609602 0.24992008847062822 0.03838190451025207
0.060085312052830304 0.2933550665718159 0.03838190451025207
0.19556524705088577 0.28053871025541793 0.06338190451025208
0.13547993499805547 0.3270774965017308 0.07588190451025206
0.060085312052830304 0.3366563367610379 0.06338190451025207
1.434394384467769E-17 0.3398938528181288 0.05088190451025207
-0.06008531205283028 0.2933550665718159 0.03838190451025207
-0.164946625266096 0.24992008847062822 0.03838190451025207
-0.06008531205283028 0.3366563367610379 0.06338190451025207
-0.13547993499805544 0.32707749650173085 0.07588190451025206
-0.19556524705088574 0.280538710255418 0.06338190451025208
-0.24034124821132116 0.2403412482113212 0.050881904510252075
-0.24992008847062822 0.16494662526609602 0.03838190451025207
-0.2933550665718159 0.06008531205283032 0.03838190451025207
-0.28053871025541793 0.19556524705088577 0.06338190451025208
-0.3270774965017308 0.1354799349980555 0.07588190451025206
-0.3366563367610379 0.060085312052830325 0.06338190451025207
-0.3398938528181288 3.3641799929590885E-17 0.05088190451025207
-0.2933550665718159 -0.06008531205283027 0.03838190451025207
-0.24992008847062824 -0.164946625266096 0.03838190451025207
-0.3366563367610379 -0.06008531205283026 0.06338190451025207
-0.32707749650173085 -0.1354799349980554 0.07588190451025206
-0.280538710255418 -0.19556524705088574 0.06338190451025208
-0.2403412482113212 -0.24034124821132116 0.050881904510252075
-0.16494662526609605 -0.24992008847062822 0.03838190451025207
-0.06008531205283034 -0.2933550665718159 0.03838190451025207
-0.1955652470508858 -0.28053871025541793 0.06338190451025208
-0.1354799349980555 -0.3270774965017308 0.07588190451025206
-0.06008531205283034 -0.3366563367610379 0.06338190451025207
-4.6577208178398605E-17 -0.3398938528181288 0.05088190451025207
0.06008531205283025 -0.2933550665718159 0.03838190451025207
0.164946625266096 -0.24992008847062822 0.03838190451025207
0.06008531205283025 -0.3366563367610379 0.06338190451025207
0.1354799349980554 -0.32707749650173085 0.07588190451025206
0.1955652470508857 -0.280538710255418 0.06338190451025207
0.24034124821132113 -0.2403412482113212 0.05088190451025207
0.2499200884706282 -0.16494662526609602 0.03838190451025207
0.2933550665718159 -0.06008531205283031 0.03838190451025207
0.28053871025541793 -0.19556524705088577 0.06338190451025207
0.3270774965017308 -0.13547993499805547 0.07588190451025206
0.3366563367610379 -0.06008531205283031 0.06338190451025207
0.3702251445193726 0.07398996749902771 0.09355957403991576
0.3141075180137527 0.20946990249708317 0.09355957403991577
0.4185504620666781 -3.198683914761829E-17 0.11123724356957944
0.4055804835787 0.07398996749902771 0.12891491309924313
0.38743283556105823 0.16047993499805543 0.14659258262890681
0.3391075180137527 0.2344699024970832 0.12891491309924313
0.2959598699961109 0.2959598699961109 0.11123724356957945
0.2094699024970832 0.3141075180137527 0.09355957403991577
0.07398996749902773 0.3702251445193726 0.09355957403991576
0.2344699024970832 0.3391075180137527 0.12891491309924313
0.16047993499805546 0.38743283556105823 0.14659258262890681
0.07398996749902774 0.4055804835787 0.12891491309924313
1.7390788931297946E-17 0.4185504620666781 0.11123724356957944
-0.07398996749902773 0.3702251445193726 0.09355957403991576
-0.20946990249708317 0.3141075180137527 0.09355957403991577
-0.07398996749902771 0.4055804835787 0.12891491309924313
-0.16047993499805546 0.38743283556105823 0.14659258262890684
-0.2344699024970832 0.3391075180137527 0.12891491309924313
-0.2959598699961109 0.2959598699961109 0.11123724356957945
-0.3141075180137527 0.2094699024970832 0.09355957403991577
-0.3702251445193726 0.07398996749902775 0.09355957403991576
-0.3391075180137527 0.23446990249708322 0.12891491309924313
-0.38743283556105823 0.1604799349980555 0.14659258262890684
-0.4055804835787 0.07398996749902775 0.12891491309924313
-0.4185504620666781 3.6108026874350454E-17 0.11123724356957944
-0.3702251445193726 -0.07398996749902768 0.09355957403991576
-0.3141075180137527 -0.20946990249708314 0.09355957403991577
-0.4055804835787 -0.07398996749902768 0.12891491309924313
-0.38743283556105823 -0.1604799349980554 0.14659258262890684
-0.3391075180137527 -0.23446990249708313 0.12891491309924313
-0.2959598699961109 -0.2959598699961109 0.11123724356957945
-0.2094699024970832 -0.3141075180137527 0.09355957403991577
-0.07398996749902777 -0.3702251445193726 0.09355957403991576
-0.23446990249708322 -0.3391075180137527 0.12891491309924313
-0.1604799349980555 -0.38743283556105823 0.14659258262890684
-0.07398996749902777 -0.4055804835787 0.12891491309924313
-4.502428389140191E-17 -0.4185504620666781 0.11123724356957944
0.07398996749902767 -0.3702251445193726 0.09355957403991574
0.20946990249708314 -0.3141075180137527 0.09355957403991574
0.07398996749902767 -0.4055804835787 0.12891491309924313
0.1604799349980554 -0.38743283556105823 0.1465925826289068
0.23446990249708313 -0.3391075180137527 0.1289149130992431
0.2959598699961109 -0.29595986999611096 0.11123724356957942
0.3141075180137527 -0.2094699024970832 0.09355957403991574
0.3702251445193726 -0.07398996749902775 0.09355957403991574
0.3391075180137527 -0.23446990249708322 0.1289149130992431
0.38743283556105823 -0.16047993499805552 0.1465925826289068
0.4055804835787 -0.07398996749902775 0.12891491309924313


POINT_DATA 184
VECTORS normals double
0 0 1
0 0 1
0 0 1
-0.1117399326631257 -0.046284195567723035 0.9926590354643879
0 0 1
0 0 1
0 0 1
0 0 1
-0.046284195567723035 -0.1117399326631257 0.9926590354643879
0 0 1
0 0 1
0 0 1
0 0 1
0.046284195567723056 -0.11173993266312574 0.9926590354643879
0 0 0.9999999999999999
0 0 0.9999999999999999
0 0 1
0 0 1
0.11173993266312572 -0.04628419556772307 0.9926590354643879
0 0 1
0 0 1
0 0 1
0 0 1
0.11173993266312568 0.04628419556772303 0.9926590354643879
0 0 1
0 0 0.9999999999999999
0 0 1
0 0 1
0.04628419556772307 0.11173993266312572 0.9926590354643879
0 0 1
0 0 1
0 0 1
0 0 1
-0.046284195567723056 0.11173993266312574 0.9926590354643879
0 0 1
0 0 1
0 0 1
0 0 1
-0.11173993266312571 0.046284195567723084 0.9926590354643879
0 0 1
-0.25734441421507176 -0.10659554656884225 0.9604224288946981
-0.25734441421507187 -0.1065955465688422 0.960422428894698
-0.25881904510252074 0 0.9659258262890684
-0.2573444142150716 -0.10659554656884221 0.960422428894698
-0.3779644730092271 -0.1565580108156215 0.9124869568340762
-0.2573444142150717 -0.10659554656884217 0.960422428894698
-0.18301270189221944 -0.18301270189221938 0.9659258262890684
-0.1065955465688422 -0.2573444142150718 0.960422428894698
-0.10659554656884225 -0.2573444142150717 0.960422428894698
-0.10659554656884221 -0.2573444142150717 0.9604224288946981
-0.15655801081562154 -0.37796447300922703 0.9124869568340761
-0.10659554656884225 -0.25734441421507165 0.9604224288946983
0 -0.2588190451025207 0.9659258262890684
0.10659554656884222 -0.2573444142150717 0.9604224288946981
0.1065955465688422 -0.2573444142150718 0.960422428894698
0.10659554656884222 -0.25734441421507165 0.9604224288946983
0.1565580108156215 -0.3779644730092271 0.9124869568340762
0.10659554656884217 -0.25734441421507165 0.960422428894698
0.18301270189221938 -0.18301270189221944 0.9659258262890684
0.2573444142150717 -0.10659554656884222 0.9604224288946981
0.2573444142150717 -0.10659554656884228 0.9604224288946983
0.2573444142150717 -0.10659554656884222 0.9604224288946981
0.37796447300922703 -0.15655801081562154 0.912486956834076
0.25734441421507165 -0.10659554656884224 0.9604224288946983
0.2588190451025207 -3.705154213700782E-17 0.9659258262890684
0.2573444142150717 0.10659554656884214 0.9604224288946982
0.25734441421507176 0.1065955465688422 0.9604224288946983
0.2573444142150717 0.1065955465688422 0.9604224288946983
0.3779644730092271 0.1565580108156215 0.912486956834076
0.25734441421507165 0.10659554656884217 0.960422428894698
0.18301270189221935 0.1830127018922193 0.9659258262890684
0.10659554656884222 0.2573444142150717 0.9604224288946981
0.10659554656884222 0.25734441421507165 0.9604224288946981
0.1065955465688422 0.2573444142150716 0.960422428894698
0.15655801081562154 0.37796447300922703 0.9124869568340761
0.10659554656884224 0.2573444142150716 0.9604224288946983
0 0.2588190451025207 0.9659258262890684
-0.10659554656884222 0.2573444142150717 0.9604224288946981
-0.1065955465688422 0.2573444142150718 0.960422428894698
-0.10659554656884222 0.25734441421507165 0.9604224288946983
-0.1565580108156215 0.3779644730092271 0.9124869568340762
-0.10659554656884217 0.25734441421507165 0.960422428894698
-0.1830127018922193 0.18301270189221938 0.9659258262890684
-0.25734441421507165 0.10659554656884222 0.960422428894698
-0.2573444142150717 0.10659554656884226 0.9604224288946981
-0.25734441421507165 0.10659554656884225 0.9604224288946983
-0.37796447300922703 0.15655801081562157 0.9124869568340761
-0.2573444142150716 0.10659554656884224 0.960422428894698
-0.48960977803747635 -0.20280301033360346 0.84802901144343
-0.48960977803747635 -0.20280301033360348 0.84802901144343
-0.4999999999999998 5.4133138471456104E-17 0.8660254037844388
-0.4896097780374764 -0.2028030103336035 0.8480290114434303
-0.5902844985873288 -0.24450384497347372 0.7692737357538558
-0.4896097780374764 -0.20280301033360354 0.8480290114434303
-0.3535533905932737 -0.3535533905932737 0.8660254037844388
-0.2028030103336035 -0.4896097780374764 0.84802901144343
-0.2028030103336035 -0.48960977803747635 0.84802901144343
-0.2028030103336036 -0.48960977803747646 0.84802901144343
-0.24450384497347386 -0.5902844985873288 0.7692737357538558
-0.2028030103336036 -0.48960977803747635 0.84802901144343
-3.608875898097074E-17 -0.4999999999999998 0.8660254037844388
0.20280301033360348 -0.48960977803747635 0.84802901144343
0.20280301033360348 -0.48960977803747635 0.84802901144343
0.20280301033360354 -0.4896097780374764 0.8480290114434303
0.24450384497347372 -0.5902844985873288 0.7692737357538558
0.20280301033360354 -0.4896097780374764 0.8480290114434303
0.3535533905932737 -0.3535533905932737 0.8660254037844388
0.48960977803747646 -0.20280301033360354 0.84802901144343
0.48960977803747635 -0.20280301033360354 0.84802901144343
0.4896097780374764 -0.20280301033360362 0.84802901144343
0.5902844985873287 -0.24450384497347386 0.769273735753856
0.48960977803747635 -0.20280301033360362 0.84802901144343
0.4999999999999998 -5.4133138471456104E-17 0.8660254037844388
0.48960977803747646 0.20280301033360348 0.84802901144343
0.48960977803747646 0.20280301033360348 0.84802901144343
0.4896097780374764 0.2028030103336035 0.8480290114434303
0.5902844985873289 0.24450384497347372 0.7692737357538557
0.4896097780374764 0.20280301033360346 0.84802901144343
0.35355339059327384 0.3535533905932737 0.8660254037844388
0.2028030103336036 0.4896097780374764 0.84802901144343
0.20280301033360348 0.48960977803747635 0.84802901144343
0.2028030103336037 0.4896097780374766 0.8480290114434301
0.24450384497347388 0.5902844985873289 0.7692737357538557
0.20280301033360368 0.4896097780374765 0.8480290114434301
3.608875898097074E-17 0.4999999999999998 0.8660254037844388
-0.20280301033360348 0.48960977803747635 0.84802901144343
-0.2028030103336034 0.48960977803747635 0.8480290114434302
-0.20280301033360346 0.48960977803747635 0.8480290114434303
-0.24450384497347363 0.5902844985873288 0.7692737357538559
-0.20280301033360337 0.48960977803747624 0.8480290114434302
-0.35355339059327356 0.35355339059327373 0.8660254037844389
-0.48960977803747635 0.2028030103336036 0.8480290114434302
-0.4896097780374764 0.20280301033360365 0.8480290114434303
-0.4896097780374764 0.20280301033360357 0.8480290114434303
-0.5902844985873286 0.24450384497347366 0.7692737357538559
-0.48960977803747635 0.20280301033360357 0.84802901144343
-0.678598344545847 -0.28108463771482034 0.678598344545847
-0.6785983445458471 -0.2810846377148203 0.678598344545847
-0.7071067811865472 -5.861346931932365E-17 0.7071067811865476
-0.6785983445458467 -0.28108463771482023 0.6785983445458473
-0.6785983445458467 -0.2810846377148201 0.6785983445458476
-0.6785983445458468 -0.2810846377148201 0.6785983445458473
-0.4999999999999999 -0.49999999999999983 0.7071067811865477
-0.28108463771482034 -0.6785983445458469 0.6785983445458471
-0.2810846377148205 -0.678598344545847 0.6785983445458471
-0.2810846377148201 -0.6785983445458464 0.6785983445458473
-0.2810846377148201 -0.6785983445458466 0.6785983445458476
-0.2810846377148203 -0.6785983445458467 0.6785983445458474
0 -0.7071067811865474 0.7071067811865477
0.2810846377148204 -0.678598344545847 0.678598344545847
0.2810846377148203 -0.6785983445458471 0.6785983445458469
0.28108463771482034 -0.6785983445458469 0.6785983445458473
0.2810846377148203 -0.6785983445458468 0.6785983445458473
0.28108463771482023 -0.6785983445458469 0.6785983445458472
0.4999999999999999 -0.5 0.7071067811865476
0.6785983445458468 -0.2810846377148204 0.6785983445458472
0.6785983445458467 -0.28108463771482045 0.6785983445458471
0.6785983445458467 -0.28108463771482023 0.6785983445458473
0.6785983445458468 -0.2810846377148203 0.6785983445458474
0.6785983445458469 -0.28108463771482034 0.6785983445458473
0.7071067811865474 -2.9306734659661836E-17 0.7071067811865476
0.6785983445458471 0.2810846377148204 0.678598344545847
0.6785983445458472 0.2810846377148203 0.6785983445458468
0.6785983445458467 0.28108463771482023 0.6785983445458472
0.6785983445458466 0.28108463771482023 0.6785983445458476
0.6785983445458468 0.2810846377148202 0.6785983445458471
0.5000000000000002 0.49999999999999994 0.7071067811865474
0.28108463771482056 0.6785983445458471 0.678598344545847
0.28108463771482045 0.6785983445458469 0.6785983445458471
0.2810846377148205 0.678598344545847 0.678598344545847
0.28108463771482045 0.6785983445458469 0.6785983445458471
0.2810846377148205 0.6785983445458469 0.6785983445458471
-2.9306734659661836E-17 0.7071067811865474 0.7071067811865476
-0.28108463771482034 0.678598344545847 0.678598344545847
-0.2810846377148202 0.6785983445458471 0.6785983445458471
-0.2810846377148201 0.6785983445458464 0.6785983445458476
-0.2810846377148199 0.6785983445458463 0.6785983445458479
-0.28108463771481984 0.6785983445458464 0.6785983445458476
-0.4999999999999997 0.49999999999999994 0.7071067811865478
-0.6785983445458468 0.28108463771482034 0.6785983445458472
-0.6785983445458469 0.28108463771482034 0.6785983445458472
-0.6785983445458469 0.2810846377148203 0.6785983445458473
-0.6785983445458469 0.2810846377148203 0.6785983445458473
-0.6785983445458468 0.28108463771482023 0.6785983445458472

