# vtk DataFile Version 4.1
Header:
ASCII

DATASET UNSTRUCTURED_GRID
POINTS 24 double
8.965644411023465 3.713691510460456 17.553703198696123
5.50390580112601 -9.697913329927766E-16 8.893449160851738
5.430110505090726 0.17815760452771823 8.893449160851738
3.7136915104604586 8.96564441102346 17.553703198696123
3.8918491149881773 3.891849114988176 8.893449160851738
3.713691510460458 3.96564441102346 8.893449160851738
-3.713691510460456 8.965644411023462 17.553703198696123
6.156597820573481E-16 5.503905801126006 8.893449160851738
-0.17815760452771853 5.430110505090722 8.893449160851738
-8.965644411023463 3.713691510460458 17.553703198696123
-3.8918491149881755 3.891849114988177 8.893449160851738
-3.965644411023459 3.7136915104604578 8.893449160851738
-8.965644411023465 -3.7136915104604555 17.553703198696123
-5.50390580112601 4.1337908338299217E-16 8.893449160851738
-5.430110505090726 -0.17815760452771873 8.893449160851738
-3.7136915104604578 -8.965644411023462 17.553703198696123
-3.891849114988177 -3.891849114988175 8.893449160851738
-3.7136915104604578 -3.965644411023459 8.893449160851738
3.71369151046046 -8.965644411023465 17.55370319869612
8.120876488195226E-17 -5.503905801126008 8.893449160851738
0.17815760452771925 -5.430110505090724 8.893449160851738
8.965644411023467 -3.7136915104604618 17.55370319869612
3.891849114988179 -3.89184911498818 8.893449160851736
3.9656444110234625 -3.713691510460461 8.893449160851736


POINT_DATA 24
VECTORS normals double
-0.8151645468115701 -0.3376522108550701 0.47063547053549926
-0.8660254037844385 2.4961747104653473E-17 0.5000000000000003
-0.8151645468115701 -0.3376522108550701 0.47063547053549926
-0.3376522108550702 -0.8151645468115702 0.4706354705354991
-0.6123724356957945 -0.6123724356957944 0.5000000000000001
-0.3376522108550702 -0.8151645468115702 0.4706354705354991
0.33765221085507025 -0.8151645468115704 0.47063547053549915
0 -0.8660254037844385 0.5
0.33765221085507025 -0.8151645468115704 0.47063547053549915
0.8151645468115699 -0.33765221085507025 0.47063547053549964
0.6123724356957944 -0.6123724356957945 0.5
0.8151645468115699 -0.33765221085507025 0.47063547053549964
0.81516454681157 0.33765221085507013 0.4706354705354993
0.8660254037844385 -9.984698841861393E-17 0.5000000000000003
0.81516454681157 0.33765221085507013 0.4706354705354993
0.3376522108550704 0.81516454681157 0.4706354705354993
0.6123724356957945 0.6123724356957944 0.5
0.3376522108550704 0.81516454681157 0.4706354705354993
-0.33765221085506986 0.81516454681157 0.4706354705354995
2.1217485038955455E-16 0.8660254037844385 0.5000000000000002
-0.33765221085506986 0.81516454681157 0.4706354705354995
-0.8151645468115698 0.33765221085507 0.4706354705355
-0.6123724356957942 0.6123724356957944 0.5000000000000004
-0.8151645468115698 0.33765221085507 0.4706354705355

