# vtk DataFile Version 4.1
Header:
ASCII

DATASET UNSTRUCTURED_GRID
POINTS 8 double
14.596041424856962 -1.089164393745404E-15 14.28872820635985
10.320959869996118 10.320959869996113 14.28872820635985
6.336934879391208E-16 14.596041424856962 14.28872820635985
-10.320959869996111 10.320959869996113 14.288728206359854
-14.596041424856962 -4.028712100530192E-16 14.288728206359854
-10.320959869996113 -10.32095986999611 14.288728206359856
-1.0224623581098453E-15 -14.596041424856962 14.28872820635985
10.320959869996114 -10.320959869996118 14.288728206359849


POINT_DATA 8
VECTORS normals double
-0.7071067811865474 0 0.7071067811865479
-0.49999999999999983 -0.4999999999999997 0.7071067811865479
2.8119111182901656E-17 -0.7071067811865472 0.7071067811865478
0.49999999999999994 -0.49999999999999994 0.7071067811865478
0.7071067811865474 -1.4059555591450828E-17 0.7071067811865478
0.5 0.4999999999999999 0.7071067811865476
1.1247644473160662E-16 0.7071067811865472 0.7071067811865478
-0.4999999999999997 0.49999999999999983 0.707106781186548

