# vtk DataFile Version 4.1
Header:
ASCII

DATASET UNSTRUCTURED_GRID
POINTS 81 double
0 0 0
0.2 0 0
0.14142135623730953 0.14142135623730953 0
1.2246467991473533E-17 0.2 0
-0.1414213562373095 0.14142135623730953 0
-0.2 2.4492935982947065E-17 0
-0.14142135623730953 -0.1414213562373095 0
-3.6739403974420595E-17 -0.2 0
0.14142135623730948 -0.14142135623730953 0
0.11380711874576983 0.047140452079103175 0
0.047140452079103175 0.11380711874576983 0
-0.04714045207910317 0.11380711874576983 0
-0.11380711874576983 0.04714045207910319 0
-0.11380711874576983 -0.04714045207910316 0
-0.04714045207910319 -0.11380711874576983 0
0.04714045207910315 -0.11380711874576983 0
0.11380711874576983 -0.047140452079103175 0
0.29659258262890686 -2.3220985052321563E-17 0.025881904510252074
0.20972262642653144 0.20972262642653144 0.025881904510252074
1.6116632166860462E-17 0.29659258262890686 0.025881904510252074
-0.20972262642653144 0.20972262642653144 0.025881904510252074
-0.29659258262890686 3.223326433372092E-17 0.025881904510252074
-0.20972262642653147 -0.20972262642653144 0.025881904510252074
-4.8349896500581376E-17 -0.29659258262890686 0.025881904510252074
0.20972262642653142 -0.20972262642653144 0.025881904510252074
0.21193414132318694 0.08778599566596024 0.012940952255126037
0.08778599566596024 0.21193414132318694 0.012940952255126037
-0.08778599566596024 0.21193414132318694 0.012940952255126037
-0.21193414132318694 0.08778599566596026 0.012940952255126037
-0.21193414132318697 -0.08778599566596022 0.012940952255126037
-0.08778599566596028 -0.21193414132318694 0.012940952255126037
0.08778599566596021 -0.21193414132318694 0.012940952255126037
0.21193414132318694 -0.08778599566596024 0.012940952255126037
0.38319512300735076 -2.6329378425111743E-17 0.07588190451025206
0.27095986999611094 0.2709598699961109 0.07588190451025208
1.2571255522494921E-17 0.38319512300735076 0.07588190451025206
-0.2709598699961109 0.27095986999611094 0.07588190451025208
-0.38319512300735076 3.505033552546086E-17 0.07588190451025206
-0.27095986999611094 -0.2709598699961109 0.07588190451025208
-4.4804519856215834E-17 -0.38319512300735076 0.07588190451025206
0.2709598699961109 -0.27095986999611094 0.07588190451025206
0.290117550514725 0.12017062410566057 0.05088190451025207
0.1201706241056606 0.290117550514725 0.05088190451025207
-0.12017062410566057 0.290117550514725 0.05088190451025207
-0.290117550514725 0.12017062410566061 0.05088190451025207
-0.290117550514725 -0.12017062410566057 0.05088190451025207
-0.12017062410566064 -0.290117550514725 0.05088190451025207
0.12017062410566054 -0.290117550514725 0.05088190451025207
0.290117550514725 -0.1201706241056606 0.05088190451025207
0.45390580112600554 -3.7644299870124833E-17 0.14659258262890681
0.3209598699961109 0.3209598699961109 0.14659258262890681
2.221032234010097E-17 0.45390580112600554 0.14659258262890681
-0.3209598699961109 0.3209598699961109 0.14659258262890684
-0.45390580112600554 3.716571822324005E-17 0.14659258262890681
-0.3209598699961109 -0.32095986999611087 0.14659258262890684
-4.524404792658798E-17 -0.45390580112600554 0.14659258262890681
0.32095986999611087 -0.320959869996111 0.1465925826289068
0.3572551660313945 0.14797993499805545 0.11123724356957945
0.14797993499805545 0.3572551660313945 0.11123724356957945
-0.14797993499805545 0.3572551660313945 0.11123724356957945
-0.3572551660313945 0.14797993499805548 0.11123724356957945
-0.3572551660313945 -0.1479799349980554 0.11123724356957945
-0.14797993499805548 -0.3572551660313945 0.11123724356957945
0.1479799349980554 -0.3572551660313945 0.11123724356957944
0.3572551660313945 -0.14797993499805548 0.11123724356957942
0.5039058011260056 -4.272275194780502E-17 0.23319512300735068
0.35631520905543834 0.35631520905543834 0.23319512300735068
2.5891335400615433E-17 0.5039058011260056 0.23319512300735068
-0.3563152090554383 0.35631520905543834 0.2331951230073507
-0.5039058011260056 3.467661498025079E-17 0.23319512300735068
-0.35631520905543834 -0.35631520905543823 0.2331951230073507
-4.705254534303474E-17 -0.5039058011260056 0.23319512300735068
0.3563152090554383 -0.3563152090554384 0.23319512300735062
0.4087716703258901 0.1693187697628873 0.18989385281812873
0.16931876976288732 0.4087716703258901 0.18989385281812873
-0.1693187697628873 0.4087716703258901 0.18989385281812876
-0.40877167032589007 0.16931876976288734 0.18989385281812876
-0.4087716703258901 -0.16931876976288723 0.18989385281812876
-0.16931876976288734 -0.40877167032589007 0.18989385281812876
0.16931876976288726 -0.4087716703258901 0.1898938528181287
0.40877167032589007 -0.16931876976288734 0.18989385281812873


POINT_DATA 81
VECTORS normals double
0 0 1
-0.11921115926269929 9.452181581186321E-18 0.9928689236285138
-0.08429501910776417 -0.08429501910776417 0.9928689236285138
0 -0.11921115926269926 0.9928689236285138
0.08429501910776417 -0.0842950191077642 0.9928689236285138
0.11921115926269928 -1.7328999565508252E-17 0.9928689236285138
0.08429501910776417 0.08429501910776416 0.9928689236285138
6.301454387457546E-18 0.11921115926269928 0.9928689236285138
-0.08429501910776417 0.08429501910776419 0.9928689236285138
0 0 1
0 0 1
0 0 0.9999999999999999
0 0 1
0 0 1
0 0 1
0 0 1
0 0 1
-0.3920936305272496 3.6652552255977217E-17 0.9199253148489612
-0.2772520650058711 -0.2772520650058711 0.9199253148489613
-1.5708236681133094E-17 -0.3920936305272496 0.9199253148489612
0.2772520650058711 -0.2772520650058711 0.9199253148489613
0.39209363052724977 -3.665255225597723E-17 0.9199253148489613
0.2772520650058711 0.277252065005871 0.9199253148489613
1.5708236681133094E-17 0.3920936305272496 0.9199253148489612
-0.2772520650058709 0.27725206500587096 0.9199253148489612
-0.25734441421507176 -0.10659554656884222 0.9604224288946981
-0.10659554656884221 -0.25734441421507165 0.9604224288946981
0.10659554656884222 -0.2573444142150717 0.9604224288946981
0.25734441421507165 -0.10659554656884222 0.9604224288946981
0.2573444142150717 0.10659554656884218 0.9604224288946983
0.10659554656884222 0.25734441421507165 0.9604224288946983
-0.10659554656884222 0.2573444142150717 0.9604224288946981
-0.25734441421507165 0.10659554656884226 0.9604224288946983
-0.6141350275345775 -8.113606675386687E-18 0.7892009680398927
-0.4342590425338869 -0.4342590425338868 0.7892009680398926
-4.868164005232014E-17 -0.6141350275345777 0.7892009680398927
0.43425904253388675 -0.43425904253388686 0.7892009680398925
0.6141350275345775 -7.302246007848019E-17 0.7892009680398926
0.43425904253388703 0.4342590425338868 0.7892009680398924
8.92496734292536E-17 0.6141350275345777 0.7892009680398927
-0.4342590425338867 0.43425904253388686 0.7892009680398926
-0.4896097780374764 -0.20280301033360348 0.8480290114434301
-0.20280301033360357 -0.4896097780374764 0.8480290114434301
0.20280301033360348 -0.4896097780374764 0.8480290114434301
0.48960977803747646 -0.2028030103336036 0.8480290114434301
0.4896097780374765 0.20280301033360348 0.8480290114434301
0.2028030103336036 0.48960977803747646 0.8480290114434301
-0.20280301033360343 0.4896097780374763 0.8480290114434302
-0.4896097780374764 0.2028030103336036 0.8480290114434302
-0.7960251079405882 7.538648922501712E-17 0.6052636016878716
-0.5628747518195435 -0.5628747518195434 0.6052636016878717
6.167985482046856E-17 -0.7960251079405881 0.6052636016878716
0.5628747518195436 -0.5628747518195436 0.6052636016878715
0.7960251079405885 -4.1119903213645713E-17 0.6052636016878715
0.5628747518195437 0.5628747518195435 0.6052636016878714
1.9874619886595434E-16 0.7960251079405883 0.6052636016878717
-0.5628747518195434 0.5628747518195435 0.6052636016878719
-0.6785983445458468 -0.2810846377148202 0.6785983445458471
-0.2810846377148203 -0.6785983445458467 0.6785983445458473
0.2810846377148203 -0.6785983445458469 0.6785983445458469
0.6785983445458468 -0.2810846377148204 0.6785983445458473
0.6785983445458469 0.2810846377148203 0.6785983445458469
0.28108463771482045 0.6785983445458468 0.6785983445458469
-0.28108463771482006 0.6785983445458467 0.6785983445458473
-0.6785983445458469 0.28108463771482034 0.6785983445458473
-0.8660254037844385 2.4961747104653473E-17 0.5000000000000003
-0.6123724356957945 -0.6123724356957944 0.5000000000000001
0 -0.8660254037844385 0.5
0.6123724356957944 -0.6123724356957945 0.5
0.8660254037844385 -9.984698841861393E-17 0.5000000000000003
0.6123724356957945 0.6123724356957944 0.5
2.1217485038955455E-16 0.8660254037844385 0.5000000000000002
-0.6123724356957942 0.6123724356957944 0.5000000000000004
-0.81516454681157 -0.3376522108550701 0.47063547053549964
-0.3376522108550701 -0.81516454681157 0.4706354705354996
0.3376522108550701 -0.8151645468115699 0.4706354705354995
0.8151645468115699 -0.3376522108550702 0.4706354705354994
0.8151645468115698 0.3376522108550701 0.4706354705354996
0.3376522108550703 0.8151645468115699 0.4706354705354994
-0.33765221085506986 0.8151645468115699 0.47063547053549976
-0.8151645468115699 0.3376522108550701 0.47063547053549964

