# vtk DataFile Version 4.1
Header:
ASCII

DATASET UNSTRUCTURED_GRID
POINTS 24 double
0.1046023729152566 0.015713484026367724 0
0.1517428249943598 0.0628539361054709 0
0.08507615832769312 0.0628539361054709 0
0.0628539361054709 0.08507615832769312 0
0.0628539361054709 0.1517428249943598 0
0.01571348402636773 0.1046023729152566 0
-0.015713484026367717 0.1046023729152566 0
-0.0628539361054709 0.1517428249943598 0
-0.0628539361054709 0.08507615832769312 0
-0.08507615832769311 0.06285393610547091 0
-0.1517428249943598 0.06285393610547092 0
-0.1046023729152566 0.015713484026367738 0
-0.1046023729152566 -0.01571348402636771 0
-0.1517428249943598 -0.06285393610547088 0
-0.08507615832769312 -0.0628539361054709 0
-0.06285393610547091 -0.08507615832769311 0
-0.06285393610547092 -0.1517428249943598 0
-0.01571348402636774 -0.1046023729152566 0
0.015713484026367703 -0.1046023729152566 0
0.06285393610547087 -0.1517428249943598 0
0.06285393610547087 -0.08507615832769312 0
0.08507615832769311 -0.0628539361054709 0
0.1517428249943598 -0.0628539361054709 0
0.1046023729152566 -0.015713484026367724 0


POINT_DATA 24
VECTORS normals double
0 0 1
0 0 1
0 0 1
0 0 1
0 0 1
0 0 1
0 -0 1
0 0 1
0 0 0.9999999999999999
0 0 1
0 0 1
-0 0 1
0 0 1
0 0 1
0 0 0.9999999999999999
0 0 1
-0 0 1
0 -0 1
0 0 1
0 0 1
0 0 1
0 0 1
0 -0 1
0 0 1

