# vtk DataFile Version 4.1
Header:
ASCII

DATASET UNSTRUCTURED_GRID
POINTS 24 double
16.7425428863406 6.934988332135458 5.202262806560666
9.955850845519592 -3.751854383583876E-16 2.614072355535459
9.912415867418405 0.10486131321326536 2.614072355535459
6.934988332135461 16.742542886340598 5.202262806560666
7.039849645348727 7.039849645348724 2.614072355535459
6.934988332135461 7.083284623449912 2.614072355535459
-6.934988332135458 16.7425428863406 5.202262806560666
-3.358478211392056E-16 9.955850845519592 2.614072355535459
-0.10486131321326607 9.912415867418405 2.614072355535459
-16.742542886340598 6.934988332135461 5.202262806560666
-7.039849645348724 7.039849645348727 2.614072355535459
-7.083284623449912 6.934988332135461 2.614072355535459
-16.7425428863406 -6.9349883321354575 5.202262806560666
-9.955850845519592 3.8419771763978697E-16 2.614072355535459
-9.912415867418405 -0.10486131321326535 2.614072355535459
-6.934988332135461 -16.742542886340594 5.202262806560666
-7.039849645348727 -7.039849645348723 2.614072355535459
-6.934988332135461 -7.083284623449911 2.614072355535459
6.934988332135458 -16.7425428863406 5.202262806560666
3.0361455680548467E-16 -9.955850845519592 2.614072355535459
0.10486131321326604 -9.912415867418405 2.614072355535459
16.742542886340598 -6.934988332135461 5.202262806560666
7.039849645348724 -7.039849645348727 2.614072355535459
7.083284623449912 -6.934988332135461 2.614072355535459


POINT_DATA 24
VECTORS normals double
-0.25734441421507165 -0.10659554656884221 0.9604224288946983
-0.2588190451025207 1.1255824737891458E-17 0.9659258262890684
-0.25734441421507165 -0.10659554656884221 0.9604224288946983
-0.10659554656884222 -0.2573444142150716 0.9604224288946983
-0.18301270189221935 -0.1830127018922193 0.9659258262890684
-0.10659554656884222 -0.2573444142150716 0.9604224288946983
0.10659554656884221 -0.25734441421507165 0.9604224288946983
-5.627912368945728E-18 -0.2588190451025207 0.9659258262890684
0.10659554656884221 -0.25734441421507165 0.9604224288946983
0.25734441421507165 -0.10659554656884224 0.9604224288946983
0.18301270189221933 -0.18301270189221935 0.9659258262890684
0.25734441421507165 -0.10659554656884224 0.9604224288946983
0.25734441421507165 0.10659554656884217 0.960422428894698
0.2588190451025207 -2.2511649475782916E-17 0.9659258262890684
0.25734441421507165 0.10659554656884217 0.960422428894698
0.10659554656884222 0.2573444142150716 0.9604224288946983
0.18301270189221933 0.1830127018922193 0.9659258262890684
0.10659554656884222 0.2573444142150716 0.9604224288946983
-0.10659554656884221 0.25734441421507165 0.9604224288946983
5.627912368945728E-18 0.2588190451025207 0.9659258262890684
-0.10659554656884221 0.25734441421507165 0.9604224288946983
-0.25734441421507165 0.10659554656884226 0.9604224288946983
-0.18301270189221924 0.1830127018922193 0.9659258262890684
-0.25734441421507165 0.10659554656884226 0.9604224288946983

