# vtk DataFile Version 4.1
Header:
ASCII

DATASET UNSTRUCTURED_GRID
POINTS 16 double
6.119286063899863 0.09031995666536945 3.4092152378435845
10.164357217534747 4.2631228179693705 6.742548571176916
4.2631228179693705 4.390854525638487 3.409215237843584
4.172802861304001 10.201768968538493 6.742548571176916
-0.09031995666536953 6.119286063899863 3.4092152378435845
-4.2631228179693705 10.164357217534747 6.7425485711769175
-4.390854525638487 4.2631228179693705 3.409215237843585
-10.201768968538493 4.1728028613040005 6.7425485711769175
-6.119286063899863 -0.09031995666537002 3.4092152378435845
-10.164357217534747 -4.26312281796937 6.7425485711769175
-4.2631228179693705 -4.3908545256384865 3.409215237843585
-4.1728028613040005 -10.201768968538492 6.7425485711769175
0.09031995666537009 -6.119286063899863 3.4092152378435845
4.2631228179693705 -10.164357217534748 6.742548571176916
4.390854525638487 -4.263122817969371 3.409215237843584
10.201768968538493 -4.172802861304002 6.742548571176916


POINT_DATA 16
VECTORS normals double
-0.4896097780374764 -0.2028030103336035 0.84802901144343
-0.48960977803747635 -0.2028030103336032 0.84802901144343
-0.20280301033360357 -0.48960977803747635 0.8480290114434302
-0.20280301033360343 -0.4896097780374763 0.8480290114434301
0.2028030103336035 -0.4896097780374764 0.84802901144343
0.20280301033360343 -0.48960977803747635 0.84802901144343
0.4896097780374764 -0.20280301033360365 0.8480290114434301
0.48960977803747635 -0.20280301033360365 0.8480290114434302
0.4896097780374764 0.20280301033360348 0.8480290114434301
0.48960977803747635 0.20280301033360354 0.84802901144343
0.20280301033360368 0.4896097780374765 0.84802901144343
0.20280301033360376 0.4896097780374763 0.84802901144343
-0.20280301033360346 0.4896097780374764 0.8480290114434301
-0.20280301033360326 0.4896097780374764 0.8480290114434301
-0.48960977803747635 0.20280301033360354 0.8480290114434302
-0.4896097780374763 0.20280301033360343 0.84802901144343

