# vtk DataFile Version 4.1
Header:
ASCII

DATASET UNSTRUCTURED_GRID
POINTS 16 double
6.847140452079103 0.04714045207910158 0
11.541659445401855 4.808326112068521 0
4.808326112068523 4.87499277873519 0
4.76118565998942 11.56118565998942 0
-0.0471404520791029 6.847140452079103 0
-4.808326112068523 11.541659445401855 0
-4.87499277873519 4.808326112068523 0
-11.56118565998942 4.76118565998942 0
-6.847140452079103 -0.04714045207910261 0
-11.541659445401857 -4.808326112068522 0
-4.8083261120685235 -4.87499277873519 0
-4.761185659989421 -11.56118565998942 0
0.047140452079102335 -6.847140452079103 0
4.808326112068523 -11.541659445401855 0
4.87499277873519 -4.808326112068523 0
11.56118565998942 -4.761185659989422 0


POINT_DATA 16
VECTORS normals double
0 0 1
-0 0 1
-0 0 1
0 0 1
0 0 1
0 -0 1
0 -0 1
0 0 1
0 0 1
0 0 1
0 0 1
0 0 1
0 0 1
0 0 1
0 0 1
0 0 1

