# vtk DataFile Version 4.1
Header:
ASCII

DATASET UNSTRUCTURED_GRID
POINTS 8 double
-0.04347826086956519 -0.04347826086956519 -0.04347826086956519
-0.04347826086956519 -0.04347826086956519 0.04347826086956519
0.04347826086956519 -0.04347826086956519 -0.04347826086956519
0.04347826086956519 -0.04347826086956519 0.04347826086956519
-0.04347826086956519 0.04347826086956519 -0.04347826086956519
-0.04347826086956519 0.04347826086956519 0.04347826086956519
0.04347826086956519 0.04347826086956519 -0.04347826086956519
0.04347826086956519 0.04347826086956519 0.04347826086956519


POINT_DATA 8
SCALARS Heaviside_nodes_all double 1
LOOKUP_TABLE default
0
0
0
0
0
0
0
0

