# vtk DataFile Version 4.1
Header:
ASCII

DATASET UNSTRUCTURED_GRID
POINTS 13 double
-1.1102230246251565E-16 -0.09523809523809529 -1.1102230246251565E-16
-0.09523809523809529 -1.1102230246251565E-16 -1.1102230246251565E-16
-1.1102230246251565E-16 -1.1102230246251565E-16 -1.1102230246251565E-16
0.09523809523809512 -1.1102230246251565E-16 -1.1102230246251565E-16
-1.1102230246251565E-16 0.09523809523809512 -1.1102230246251565E-16
-1.1102230246251565E-16 -0.19047619047619052 -1.1102230246251565E-16
-0.09523809523809529 -0.09523809523809529 -1.1102230246251565E-16
0.09523809523809512 -0.09523809523809529 -1.1102230246251565E-16
-0.19047619047619052 -1.1102230246251565E-16 -1.1102230246251565E-16
0.19047619047619047 -1.1102230246251565E-16 -1.1102230246251565E-16
-0.09523809523809529 0.09523809523809512 -1.1102230246251565E-16
0.09523809523809512 0.09523809523809512 -1.1102230246251565E-16
-1.1102230246251565E-16 0.19047619047619047 -1.1102230246251565E-16


POINT_DATA 13
SCALARS intersected_element_centroids double 1
LOOKUP_TABLE default
0
0
0
0
0
0
0
0
0
0
0
0
0

