# vtk DataFile Version 4.1
Header:
ASCII

DATASET UNSTRUCTURED_GRID
POINTS 72 double
-0.13043478260869568 -0.13043478260869568 -0.04347826086956519
-0.04347826086956519 -0.13043478260869568 -0.04347826086956519
-0.04347826086956519 -0.04347826086956519 -0.04347826086956519
-0.13043478260869568 -0.04347826086956519 -0.04347826086956519
-0.13043478260869568 -0.13043478260869568 0.04347826086956519
-0.04347826086956519 -0.13043478260869568 0.04347826086956519
-0.04347826086956519 -0.04347826086956519 0.04347826086956519
-0.13043478260869568 -0.04347826086956519 0.04347826086956519
-0.04347826086956519 -0.13043478260869568 -0.04347826086956519
0.04347826086956519 -0.13043478260869568 -0.04347826086956519
0.04347826086956519 -0.04347826086956519 -0.04347826086956519
-0.04347826086956519 -0.04347826086956519 -0.04347826086956519
-0.04347826086956519 -0.13043478260869568 0.04347826086956519
0.04347826086956519 -0.13043478260869568 0.04347826086956519
0.04347826086956519 -0.04347826086956519 0.04347826086956519
-0.04347826086956519 -0.04347826086956519 0.04347826086956519
0.04347826086956519 -0.13043478260869568 -0.04347826086956519
0.13043478260869557 -0.13043478260869568 -0.04347826086956519
0.13043478260869557 -0.04347826086956519 -0.04347826086956519
0.04347826086956519 -0.04347826086956519 -0.04347826086956519
0.04347826086956519 -0.13043478260869568 0.04347826086956519
0.13043478260869557 -0.13043478260869568 0.04347826086956519
0.13043478260869557 -0.04347826086956519 0.04347826086956519
0.04347826086956519 -0.04347826086956519 0.04347826086956519
-0.13043478260869568 -0.04347826086956519 -0.04347826086956519
-0.04347826086956519 -0.04347826086956519 -0.04347826086956519
-0.04347826086956519 0.04347826086956519 -0.04347826086956519
-0.13043478260869568 0.04347826086956519 -0.04347826086956519
-0.13043478260869568 -0.04347826086956519 0.04347826086956519
-0.04347826086956519 -0.04347826086956519 0.04347826086956519
-0.04347826086956519 0.04347826086956519 0.04347826086956519
-0.13043478260869568 0.04347826086956519 0.04347826086956519
-0.04347826086956519 -0.04347826086956519 -0.04347826086956519
0.04347826086956519 -0.04347826086956519 -0.04347826086956519
0.04347826086956519 0.04347826086956519 -0.04347826086956519
-0.04347826086956519 0.04347826086956519 -0.04347826086956519
-0.04347826086956519 -0.04347826086956519 0.04347826086956519
0.04347826086956519 -0.04347826086956519 0.04347826086956519
0.04347826086956519 0.04347826086956519 0.04347826086956519
-0.04347826086956519 0.04347826086956519 0.04347826086956519
0.04347826086956519 -0.04347826086956519 -0.04347826086956519
0.13043478260869557 -0.04347826086956519 -0.04347826086956519
0.13043478260869557 0.04347826086956519 -0.04347826086956519
0.04347826086956519 0.04347826086956519 -0.04347826086956519
0.04347826086956519 -0.04347826086956519 0.04347826086956519
0.13043478260869557 -0.04347826086956519 0.04347826086956519
0.13043478260869557 0.04347826086956519 0.04347826086956519
0.04347826086956519 0.04347826086956519 0.04347826086956519
-0.13043478260869568 0.04347826086956519 -0.04347826086956519
-0.04347826086956519 0.04347826086956519 -0.04347826086956519
-0.04347826086956519 0.13043478260869557 -0.04347826086956519
-0.13043478260869568 0.13043478260869557 -0.04347826086956519
-0.13043478260869568 0.04347826086956519 0.04347826086956519
-0.04347826086956519 0.04347826086956519 0.04347826086956519
-0.04347826086956519 0.13043478260869557 0.04347826086956519
-0.13043478260869568 0.13043478260869557 0.04347826086956519
-0.04347826086956519 0.04347826086956519 -0.04347826086956519
0.04347826086956519 0.04347826086956519 -0.04347826086956519
0.04347826086956519 0.13043478260869557 -0.04347826086956519
-0.04347826086956519 0.13043478260869557 -0.04347826086956519
-0.04347826086956519 0.04347826086956519 0.04347826086956519
0.04347826086956519 0.04347826086956519 0.04347826086956519
0.04347826086956519 0.13043478260869557 0.04347826086956519
-0.04347826086956519 0.13043478260869557 0.04347826086956519
0.04347826086956519 0.04347826086956519 -0.04347826086956519
0.13043478260869557 0.04347826086956519 -0.04347826086956519
0.13043478260869557 0.13043478260869557 -0.04347826086956519
0.04347826086956519 0.13043478260869557 -0.04347826086956519
0.04347826086956519 0.04347826086956519 0.04347826086956519
0.13043478260869557 0.04347826086956519 0.04347826086956519
0.13043478260869557 0.13043478260869557 0.04347826086956519
0.04347826086956519 0.13043478260869557 0.04347826086956519

CELLS 9 81
8 0 1 2 3 4 5 6 7
8 8 9 10 11 12 13 14 15
8 16 17 18 19 20 21 22 23
8 24 25 26 27 28 29 30 31
8 32 33 34 35 36 37 38 39
8 40 41 42 43 44 45 46 47
8 48 49 50 51 52 53 54 55
8 56 57 58 59 60 61 62 63
8 64 65 66 67 68 69 70 71

CELL_TYPES 9
12
12
12
12
12
12
12
12
12


POINT_DATA 72
SCALARS is_in_intersected_element double 1
LOOKUP_TABLE default
1
1
1
1
1
1
1
1
1
1
1
1
1
1
1
1
1
1
1
1
1
1
1
1
1
1
1
1
1
1
1
1
1
1
1
1
1
1
1
1
1
1
1
1
1
1
1
1
1
1
1
1
1
1
1
1
1
1
1
1
1
1
1
1
1
1
1
1
1
1
1
1

