# vtk DataFile Version 4.1
Header:
ASCII

DATASET UNSTRUCTURED_GRID
POINTS 5 double
-1.1102230246251565E-16 -0.09523809523809529 -1.1102230246251565E-16
-0.09523809523809529 -1.1102230246251565E-16 -1.1102230246251565E-16
-1.1102230246251565E-16 -1.1102230246251565E-16 -1.1102230246251565E-16
0.09523809523809512 -1.1102230246251565E-16 -1.1102230246251565E-16
-1.1102230246251565E-16 0.09523809523809512 -1.1102230246251565E-16


POINT_DATA 5
SCALARS intersected_element_centroids double 1
LOOKUP_TABLE default
0
0
0
0
0

