# vtk DataFile Version 4.1
Header:
ASCII

DATASET UNSTRUCTURED_GRID
POINTS 125 double
-1.1102230246251565E-16 -0.09523809523809529 -1.1102230246251565E-16
-0.09523809523809529 -1.1102230246251565E-16 -1.1102230246251565E-16
-1.1102230246251565E-16 -1.1102230246251565E-16 -1.1102230246251565E-16
0.09523809523809512 -1.1102230246251565E-16 -1.1102230246251565E-16
-1.1102230246251565E-16 0.09523809523809512 -1.1102230246251565E-16
-1.1102230246251565E-16 -0.19047619047619052 -1.1102230246251565E-16
-0.09523809523809529 -0.09523809523809529 -1.1102230246251565E-16
0.09523809523809512 -0.09523809523809529 -1.1102230246251565E-16
-0.19047619047619052 -1.1102230246251565E-16 -1.1102230246251565E-16
0.19047619047619047 -1.1102230246251565E-16 -1.1102230246251565E-16
-0.09523809523809529 0.09523809523809512 -1.1102230246251565E-16
0.09523809523809512 0.09523809523809512 -1.1102230246251565E-16
-1.1102230246251565E-16 0.19047619047619047 -1.1102230246251565E-16
-0.09523809523809529 -0.28571428571428575 -1.1102230246251565E-16
-1.1102230246251565E-16 -0.28571428571428575 -1.1102230246251565E-16
0.09523809523809512 -0.28571428571428575 -1.1102230246251565E-16
-0.19047619047619052 -0.19047619047619052 -1.1102230246251565E-16
-0.09523809523809529 -0.19047619047619052 -1.1102230246251565E-16
0.09523809523809512 -0.19047619047619052 -1.1102230246251565E-16
0.19047619047619047 -0.19047619047619052 -1.1102230246251565E-16
-0.28571428571428575 -0.09523809523809529 -1.1102230246251565E-16
-0.19047619047619052 -0.09523809523809529 -1.1102230246251565E-16
0.19047619047619047 -0.09523809523809529 -1.1102230246251565E-16
0.2857142857142857 -0.09523809523809529 -1.1102230246251565E-16
-0.28571428571428575 -1.1102230246251565E-16 -1.1102230246251565E-16
0.2857142857142857 -1.1102230246251565E-16 -1.1102230246251565E-16
-0.28571428571428575 0.09523809523809512 -1.1102230246251565E-16
-0.19047619047619052 0.09523809523809512 -1.1102230246251565E-16
0.19047619047619047 0.09523809523809512 -1.1102230246251565E-16
0.2857142857142857 0.09523809523809512 -1.1102230246251565E-16
-0.19047619047619052 0.19047619047619047 -1.1102230246251565E-16
-0.09523809523809529 0.19047619047619047 -1.1102230246251565E-16
0.09523809523809512 0.19047619047619047 -1.1102230246251565E-16
0.19047619047619047 0.19047619047619047 -1.1102230246251565E-16
-0.09523809523809529 0.2857142857142857 -1.1102230246251565E-16
-1.1102230246251565E-16 0.2857142857142857 -1.1102230246251565E-16
0.09523809523809512 0.2857142857142857 -1.1102230246251565E-16
-0.19047619047619052 -0.19047619047619052 0.09523809523809512
0.19047619047619047 -0.19047619047619052 0.09523809523809512
-0.19047619047619052 0.19047619047619047 0.09523809523809512
0.19047619047619047 0.19047619047619047 0.09523809523809512
-0.19047619047619052 -0.28571428571428575 -1.1102230246251565E-16
0.19047619047619047 -0.28571428571428575 -1.1102230246251565E-16
-0.28571428571428575 -0.19047619047619052 -1.1102230246251565E-16
0.2857142857142857 -0.19047619047619052 -1.1102230246251565E-16
-0.28571428571428575 0.19047619047619047 -1.1102230246251565E-16
0.2857142857142857 0.19047619047619047 -1.1102230246251565E-16
-0.19047619047619052 0.2857142857142857 -1.1102230246251565E-16
0.19047619047619047 0.2857142857142857 -1.1102230246251565E-16
-1.1102230246251565E-16 -0.38095238095238104 0.09523809523809512
-0.19047619047619052 -0.28571428571428575 0.09523809523809512
-0.09523809523809529 -0.28571428571428575 0.09523809523809512
-1.1102230246251565E-16 -0.28571428571428575 0.09523809523809512
0.09523809523809512 -0.28571428571428575 0.09523809523809512
0.19047619047619047 -0.28571428571428575 0.09523809523809512
-0.28571428571428575 -0.19047619047619052 0.09523809523809512
0.2857142857142857 -0.19047619047619052 0.09523809523809512
-0.28571428571428575 -0.09523809523809529 0.09523809523809512
0.2857142857142857 -0.09523809523809529 0.09523809523809512
-0.38095238095238104 -1.1102230246251565E-16 0.09523809523809512
-0.28571428571428575 -1.1102230246251565E-16 0.09523809523809512
0.2857142857142857 -1.1102230246251565E-16 0.09523809523809512
0.3809523809523808 -1.1102230246251565E-16 0.09523809523809512
-0.28571428571428575 0.09523809523809512 0.09523809523809512
0.2857142857142857 0.09523809523809512 0.09523809523809512
-0.28571428571428575 0.19047619047619047 0.09523809523809512
0.2857142857142857 0.19047619047619047 0.09523809523809512
-0.19047619047619052 0.2857142857142857 0.09523809523809512
-0.09523809523809529 0.2857142857142857 0.09523809523809512
-1.1102230246251565E-16 0.2857142857142857 0.09523809523809512
0.09523809523809512 0.2857142857142857 0.09523809523809512
0.19047619047619047 0.2857142857142857 0.09523809523809512
-1.1102230246251565E-16 0.3809523809523808 0.09523809523809512
-0.09523809523809529 -0.4761904761904763 0.09523809523809512
-1.1102230246251565E-16 -0.4761904761904763 0.09523809523809512
0.09523809523809512 -0.4761904761904763 0.09523809523809512
-0.28571428571428575 -0.38095238095238104 0.09523809523809512
-0.19047619047619052 -0.38095238095238104 0.09523809523809512
-0.09523809523809529 -0.38095238095238104 0.09523809523809512
0.09523809523809512 -0.38095238095238104 0.09523809523809512
0.19047619047619047 -0.38095238095238104 0.09523809523809512
0.2857142857142857 -0.38095238095238104 0.09523809523809512
-0.38095238095238104 -0.28571428571428575 0.09523809523809512
-0.28571428571428575 -0.28571428571428575 0.09523809523809512
0.2857142857142857 -0.28571428571428575 0.09523809523809512
0.3809523809523808 -0.28571428571428575 0.09523809523809512
-0.38095238095238104 -0.19047619047619052 0.09523809523809512
0.3809523809523808 -0.19047619047619052 0.09523809523809512
-0.47619047619047616 -0.09523809523809529 0.09523809523809512
-0.38095238095238104 -0.09523809523809529 0.09523809523809512
0.3809523809523808 -0.09523809523809529 0.09523809523809512
0.47619047619047605 -0.09523809523809529 0.09523809523809512
-0.47619047619047616 -1.1102230246251565E-16 0.09523809523809512
0.47619047619047605 -1.1102230246251565E-16 0.09523809523809512
-0.47619047619047616 0.09523809523809512 0.09523809523809512
-0.38095238095238104 0.09523809523809512 0.09523809523809512
0.3809523809523808 0.09523809523809512 0.09523809523809512
0.47619047619047605 0.09523809523809512 0.09523809523809512
-0.38095238095238104 0.19047619047619047 0.09523809523809512
0.3809523809523808 0.19047619047619047 0.09523809523809512
-0.38095238095238104 0.2857142857142857 0.09523809523809512
-0.28571428571428575 0.2857142857142857 0.09523809523809512
0.2857142857142857 0.2857142857142857 0.09523809523809512
0.3809523809523808 0.2857142857142857 0.09523809523809512
-0.28571428571428575 0.3809523809523808 0.09523809523809512
-0.19047619047619052 0.3809523809523808 0.09523809523809512
-0.09523809523809529 0.3809523809523808 0.09523809523809512
0.09523809523809512 0.3809523809523808 0.09523809523809512
0.19047619047619047 0.3809523809523808 0.09523809523809512
0.2857142857142857 0.3809523809523808 0.09523809523809512
-0.09523809523809529 0.47619047619047605 0.09523809523809512
-1.1102230246251565E-16 0.47619047619047605 0.09523809523809512
0.09523809523809512 0.47619047619047605 0.09523809523809512
-0.09523809523809529 -0.38095238095238104 0.19047619047619047
0.09523809523809512 -0.38095238095238104 0.19047619047619047
-0.28571428571428575 -0.28571428571428575 0.19047619047619047
0.2857142857142857 -0.28571428571428575 0.19047619047619047
-0.38095238095238104 -0.09523809523809529 0.19047619047619047
0.3809523809523808 -0.09523809523809529 0.19047619047619047
-0.38095238095238104 0.09523809523809512 0.19047619047619047
0.3809523809523808 0.09523809523809512 0.19047619047619047
-0.28571428571428575 0.2857142857142857 0.19047619047619047
0.2857142857142857 0.2857142857142857 0.19047619047619047
-0.09523809523809529 0.3809523809523808 0.19047619047619047
0.09523809523809512 0.3809523809523808 0.19047619047619047


POINT_DATA 125
SCALARS intersected_element_centroids double 1
LOOKUP_TABLE default
0
0
0
0
0
0
0
0
0
0
0
0
0
0
0
0
0
0
0
0
0
0
0
0
0
0
0
0
0
0
0
0
0
0
0
0
0
0
0
0
0
0
0
0
0
0
0
0
0
0
0
0
0
0
0
0
0
0
0
0
0
0
0
0
0
0
0
0
0
0
0
0
0
0
0
0
0
0
0
0
0
0
0
0
0
0
0
0
0
0
0
0
0
0
0
0
0
0
0
0
0
0
0
0
0
0
0
0
0
0
0
0
0
0
0
0
0
0
0
0
0
0
0
0
0

