# vtk DataFile Version 4.1
Header:
ASCII

DATASET UNSTRUCTURED_GRID
POINTS 13824 double
-1 -1 -1
-0.9130434782608696 -1 -1
-0.8260869565217391 -1 -1
-0.7391304347826086 -1 -1
-0.6521739130434783 -1 -1
-0.5652173913043479 -1 -1
-0.4782608695652174 -1 -1
-0.3913043478260869 -1 -1
-0.30434782608695654 -1 -1
-0.21739130434782616 -1 -1
-0.13043478260869568 -1 -1
-0.04347826086956519 -1 -1
0.04347826086956519 -1 -1
0.13043478260869557 -1 -1
0.21739130434782616 -1 -1
0.30434782608695654 -1 -1
0.3913043478260869 -1 -1
0.4782608695652173 -1 -1
0.5652173913043477 -1 -1
0.6521739130434783 -1 -1
0.7391304347826086 -1 -1
0.826086956521739 -1 -1
0.9130434782608696 -1 -1
1 -1 -1
-1 -0.9130434782608696 -1
-0.9130434782608696 -0.9130434782608696 -1
-0.8260869565217391 -0.9130434782608696 -1
-0.7391304347826086 -0.9130434782608696 -1
-0.6521739130434783 -0.9130434782608696 -1
-0.5652173913043479 -0.9130434782608696 -1
-0.4782608695652174 -0.9130434782608696 -1
-0.3913043478260869 -0.9130434782608696 -1
-0.30434782608695654 -0.9130434782608696 -1
-0.21739130434782616 -0.9130434782608696 -1
-0.13043478260869568 -0.9130434782608696 -1
-0.04347826086956519 -0.9130434782608696 -1
0.04347826086956519 -0.9130434782608696 -1
0.13043478260869557 -0.9130434782608696 -1
0.21739130434782616 -0.9130434782608696 -1
0.30434782608695654 -0.9130434782608696 -1
0.3913043478260869 -0.9130434782608696 -1
0.4782608695652173 -0.9130434782608696 -1
0.5652173913043477 -0.9130434782608696 -1
0.6521739130434783 -0.9130434782608696 -1
0.7391304347826086 -0.9130434782608696 -1
0.826086956521739 -0.9130434782608696 -1
0.9130434782608696 -0.9130434782608696 -1
1 -0.9130434782608696 -1
-1 -0.8260869565217391 -1
-0.9130434782608696 -0.8260869565217391 -1
-0.8260869565217391 -0.8260869565217391 -1
-0.7391304347826086 -0.8260869565217391 -1
-0.6521739130434783 -0.8260869565217391 -1
-0.5652173913043479 -0.8260869565217391 -1
-0.4782608695652174 -0.8260869565217391 -1
-0.3913043478260869 -0.8260869565217391 -1
-0.30434782608695654 -0.8260869565217391 -1
-0.21739130434782616 -0.8260869565217391 -1
-0.13043478260869568 -0.8260869565217391 -1
-0.04347826086956519 -0.8260869565217391 -1
0.04347826086956519 -0.8260869565217391 -1
0.13043478260869557 -0.8260869565217391 -1
0.21739130434782616 -0.8260869565217391 -1
0.30434782608695654 -0.8260869565217391 -1
0.3913043478260869 -0.8260869565217391 -1
0.4782608695652173 -0.8260869565217391 -1
0.5652173913043477 -0.8260869565217391 -1
0.6521739130434783 -0.8260869565217391 -1
0.7391304347826086 -0.8260869565217391 -1
0.826086956521739 -0.8260869565217391 -1
0.9130434782608696 -0.8260869565217391 -1
1 -0.8260869565217391 -1
-1 -0.7391304347826086 -1
-0.9130434782608696 -0.7391304347826086 -1
-0.8260869565217391 -0.7391304347826086 -1
-0.7391304347826086 -0.7391304347826086 -1
-0.6521739130434783 -0.7391304347826086 -1
-0.5652173913043479 -0.7391304347826086 -1
-0.4782608695652174 -0.7391304347826086 -1
-0.3913043478260869 -0.7391304347826086 -1
-0.30434782608695654 -0.7391304347826086 -1
-0.21739130434782616 -0.7391304347826086 -1
-0.13043478260869568 -0.7391304347826086 -1
-0.04347826086956519 -0.7391304347826086 -1
0.04347826086956519 -0.7391304347826086 -1
0.13043478260869557 -0.7391304347826086 -1
0.21739130434782616 -0.7391304347826086 -1
0.30434782608695654 -0.7391304347826086 -1
0.3913043478260869 -0.7391304347826086 -1
0.4782608695652173 -0.7391304347826086 -1
0.5652173913043477 -0.7391304347826086 -1
0.6521739130434783 -0.7391304347826086 -1
0.7391304347826086 -0.7391304347826086 -1
0.826086956521739 -0.7391304347826086 -1
0.9130434782608696 -0.7391304347826086 -1
1 -0.7391304347826086 -1
-1 -0.6521739130434783 -1
-0.9130434782608696 -0.6521739130434783 -1
-0.8260869565217391 -0.6521739130434783 -1
-0.7391304347826086 -0.6521739130434783 -1
-0.6521739130434783 -0.6521739130434783 -1
-0.5652173913043479 -0.6521739130434783 -1
-0.4782608695652174 -0.6521739130434783 -1
-0.3913043478260869 -0.6521739130434783 -1
-0.30434782608695654 -0.6521739130434783 -1
-0.21739130434782616 -0.6521739130434783 -1
-0.13043478260869568 -0.6521739130434783 -1
-0.04347826086956519 -0.6521739130434783 -1
0.04347826086956519 -0.6521739130434783 -1
0.13043478260869557 -0.6521739130434783 -1
0.21739130434782616 -0.6521739130434783 -1
0.30434782608695654 -0.6521739130434783 -1
0.3913043478260869 -0.6521739130434783 -1
0.4782608695652173 -0.6521739130434783 -1
0.5652173913043477 -0.6521739130434783 -1
0.6521739130434783 -0.6521739130434783 -1
0.7391304347826086 -0.6521739130434783 -1
0.826086956521739 -0.6521739130434783 -1
0.9130434782608696 -0.6521739130434783 -1
1 -0.6521739130434783 -1
-1 -0.5652173913043479 -1
-0.9130434782608696 -0.5652173913043479 -1
-0.8260869565217391 -0.5652173913043479 -1
-0.7391304347826086 -0.5652173913043479 -1
-0.6521739130434783 -0.5652173913043479 -1
-0.5652173913043479 -0.5652173913043479 -1
-0.4782608695652174 -0.5652173913043479 -1
-0.3913043478260869 -0.5652173913043479 -1
-0.30434782608695654 -0.5652173913043479 -1
-0.21739130434782616 -0.5652173913043479 -1
-0.13043478260869568 -0.5652173913043479 -1
-0.04347826086956519 -0.5652173913043479 -1
0.04347826086956519 -0.5652173913043479 -1
0.13043478260869557 -0.5652173913043479 -1
0.21739130434782616 -0.5652173913043479 -1
0.30434782608695654 -0.5652173913043479 -1
0.3913043478260869 -0.5652173913043479 -1
0.4782608695652173 -0.5652173913043479 -1
0.5652173913043477 -0.5652173913043479 -1
0.6521739130434783 -0.5652173913043479 -1
0.7391304347826086 -0.5652173913043479 -1
0.826086956521739 -0.5652173913043479 -1
0.9130434782608696 -0.5652173913043479 -1
1 -0.5652173913043479 -1
-1 -0.4782608695652174 -1
-0.9130434782608696 -0.4782608695652174 -1
-0.8260869565217391 -0.4782608695652174 -1
-0.7391304347826086 -0.4782608695652174 -1
-0.6521739130434783 -0.4782608695652174 -1
-0.5652173913043479 -0.4782608695652174 -1
-0.4782608695652174 -0.4782608695652174 -1
-0.3913043478260869 -0.4782608695652174 -1
-0.30434782608695654 -0.4782608695652174 -1
-0.21739130434782616 -0.4782608695652174 -1
-0.13043478260869568 -0.4782608695652174 -1
-0.04347826086956519 -0.4782608695652174 -1
0.04347826086956519 -0.4782608695652174 -1
0.13043478260869557 -0.4782608695652174 -1
0.21739130434782616 -0.4782608695652174 -1
0.30434782608695654 -0.4782608695652174 -1
0.3913043478260869 -0.4782608695652174 -1
0.4782608695652173 -0.4782608695652174 -1
0.5652173913043477 -0.4782608695652174 -1
0.6521739130434783 -0.4782608695652174 -1
0.7391304347826086 -0.4782608695652174 -1
0.826086956521739 -0.4782608695652174 -1
0.9130434782608696 -0.4782608695652174 -1
1 -0.4782608695652174 -1
-1 -0.3913043478260869 -1
-0.9130434782608696 -0.3913043478260869 -1
-0.8260869565217391 -0.3913043478260869 -1
-0.7391304347826086 -0.3913043478260869 -1
-0.6521739130434783 -0.3913043478260869 -1
-0.5652173913043479 -0.3913043478260869 -1
-0.4782608695652174 -0.3913043478260869 -1
-0.3913043478260869 -0.3913043478260869 -1
-0.30434782608695654 -0.3913043478260869 -1
-0.21739130434782616 -0.3913043478260869 -1
-0.13043478260869568 -0.3913043478260869 -1
-0.04347826086956519 -0.3913043478260869 -1
0.04347826086956519 -0.3913043478260869 -1
0.13043478260869557 -0.3913043478260869 -1
0.21739130434782616 -0.3913043478260869 -1
0.30434782608695654 -0.3913043478260869 -1
0.3913043478260869 -0.3913043478260869 -1
0.4782608695652173 -0.3913043478260869 -1
0.5652173913043477 -0.3913043478260869 -1
0.6521739130434783 -0.3913043478260869 -1
0.7391304347826086 -0.3913043478260869 -1
0.826086956521739 -0.3913043478260869 -1
0.9130434782608696 -0.3913043478260869 -1
1 -0.3913043478260869 -1
-1 -0.30434782608695654 -1
-0.9130434782608696 -0.30434782608695654 -1
-0.8260869565217391 -0.30434782608695654 -1
-0.7391304347826086 -0.30434782608695654 -1
-0.6521739130434783 -0.30434782608695654 -1
-0.5652173913043479 -0.30434782608695654 -1
-0.4782608695652174 -0.30434782608695654 -1
-0.3913043478260869 -0.30434782608695654 -1
-0.30434782608695654 -0.30434782608695654 -1
-0.21739130434782616 -0.30434782608695654 -1
-0.13043478260869568 -0.30434782608695654 -1
-0.04347826086956519 -0.30434782608695654 -1
0.04347826086956519 -0.30434782608695654 -1
0.13043478260869557 -0.30434782608695654 -1
0.21739130434782616 -0.30434782608695654 -1
0.30434782608695654 -0.30434782608695654 -1
0.3913043478260869 -0.30434782608695654 -1
0.4782608695652173 -0.30434782608695654 -1
0.5652173913043477 -0.30434782608695654 -1
0.6521739130434783 -0.30434782608695654 -1
0.7391304347826086 -0.30434782608695654 -1
0.826086956521739 -0.30434782608695654 -1
0.9130434782608696 -0.30434782608695654 -1
1 -0.30434782608695654 -1
-1 -0.21739130434782616 -1
-0.9130434782608696 -0.21739130434782616 -1
-0.8260869565217391 -0.21739130434782616 -1
-0.7391304347826086 -0.21739130434782616 -1
-0.6521739130434783 -0.21739130434782616 -1
-0.5652173913043479 -0.21739130434782616 -1
-0.4782608695652174 -0.21739130434782616 -1
-0.3913043478260869 -0.21739130434782616 -1
-0.30434782608695654 -0.21739130434782616 -1
-0.21739130434782616 -0.21739130434782616 -1
-0.13043478260869568 -0.21739130434782616 -1
-0.04347826086956519 -0.21739130434782616 -1
0.04347826086956519 -0.21739130434782616 -1
0.13043478260869557 -0.21739130434782616 -1
0.21739130434782616 -0.21739130434782616 -1
0.30434782608695654 -0.21739130434782616 -1
0.3913043478260869 -0.21739130434782616 -1
0.4782608695652173 -0.21739130434782616 -1
0.5652173913043477 -0.21739130434782616 -1
0.6521739130434783 -0.21739130434782616 -1
0.7391304347826086 -0.21739130434782616 -1
0.826086956521739 -0.21739130434782616 -1
0.9130434782608696 -0.21739130434782616 -1
1 -0.21739130434782616 -1
-1 -0.13043478260869568 -1
-0.9130434782608696 -0.13043478260869568 -1
-0.8260869565217391 -0.13043478260869568 -1
-0.7391304347826086 -0.13043478260869568 -1
-0.6521739130434783 -0.13043478260869568 -1
-0.5652173913043479 -0.13043478260869568 -1
-0.4782608695652174 -0.13043478260869568 -1
-0.3913043478260869 -0.13043478260869568 -1
[...]
POINT_DATA 13824
SCALARS phi1 double 1
LOOKUP_TABLE default
1.490141233160395
1.4495836449170454
1.413218831534284
1.3813779574545133
1.3543801276691911
1.3325006535280148
1.3131427995965261
1.2943510830287965
1.2761505137206326
1.2590531672642238
1.2469840140539903
1.240905418619915
1.240905418619915
1.2469840140539903
1.2590531672642238
1.2761505137206326
1.2943510830287968
1.3131427995965261
1.3325006535280148
1.3543801276691911
1.3813779574545133
1.413218831534284
1.4495836449170454
1.490141233160395
1.4495836449170454
1.4078581577904756
1.3703865566508349
1.3375264147624926
1.3096249001417999
1.2870045537220787
1.2687907588229221
1.2511557032166594
1.2335206588398242
1.2162510727691211
1.2037528505969017
1.1974548225190926
1.1974548225190926
1.2037528505969017
1.2162510727691211
1.2335206588398242
1.2511557032166594
1.2687907588229221
1.2870045537220787
1.3096249001417999
1.3375264147624928
1.3703865566508349
1.4078581577904756
1.4495836449170454
1.4132188315342842
1.3703865566508349
1.3318611177001423
1.2980260522730458
1.269256515155057
1.2457762879684118
1.226219153868118
1.2085823265096078
1.191324958218884
1.1747582530852012
1.161813757234748
1.1552871215217395
1.1552871215217395
1.161813757234748
1.1747582530852012
1.191324958218884
1.2085823265096078
1.2262191538681178
1.2457762879684118
1.269256515155057
1.2980260522730458
1.331861117700142
1.3703865566508349
1.413218831534284
1.3813779574545133
1.3375264147624928
1.2980260522730458
1.2632850936814002
1.2335772424021463
1.2075780692258518
1.1852506475754312
1.1681030292288759
1.1525603438278162
1.1377788444866213
1.124849618884485
1.1181072362517988
1.1181072362517988
1.124849618884485
1.1377788444866213
1.1525603438278162
1.1681030292288759
1.1852506475754312
1.2075780692258515
1.233577242402146
1.2632850936814002
1.2980260522730458
1.3375264147624926
1.3813779574545133
1.3543801276691911
1.3096249001417999
1.269256515155057
1.2335772424021463
1.201300095700196
1.1724220020479432
1.1490472623258738
1.1318861752207736
1.1182324070038832
1.1054120553067455
1.0935652687677844
1.0866287883675918
1.0866287883675918
1.0935652687677844
1.1054120553067455
1.1182324070038832
1.1318861752207736
1.1490472623258738
1.1724220020479432
1.2013000957001958
1.2335772424021465
1.269256515155057
1.3096249001417999
1.3543801276691911
1.3325006535280148
1.2870045537220787
1.2457762879684118
1.2075780692258515
1.1724220020479432
1.142447695832352
1.1184466897823642
1.1008097616770764
1.088760885503717
1.078071938644909
1.0683129866805634
1.0613419681053586
1.0613419681053586
1.0683129866805634
1.078071938644909
1.088760885503717
1.1008097616770764
1.1184466897823642
1.142447695832352
1.1724220020479434
1.2075780692258515
1.2457762879684118
1.2870045537220787
1.3325006535280148
1.3131427995965261
1.2687907588229221
1.2262191538681178
1.1852506475754312
1.1490472623258738
1.1184466897823642
1.0939192191645626
1.0758802868237805
1.0644734322407134
1.0552042542782054
1.0459350763156978
1.0388552655781413
1.0388552655781413
1.0459350763156978
1.0552042542782056
1.0644734322407134
1.0758802868237805
1.0939192191645626
1.1184466897823642
1.1490472623258738
1.1852506475754312
1.2262191538681178
1.2687907588229221
1.3131427995965266
1.2943510830287968
1.2511557032166591
1.2085823265096078
1.1681030292288759
1.1318861752207736
1.1008097616770764
1.0758802868237805
1.057389349184214
1.0432887007140952
1.03323075822457
1.0253650948642585
1.0190621731108491
1.0190621731108491
1.0253650948642585
1.03323075822457
1.0432887007140952
1.057389349184214
1.0758802868237805
1.1008097616770764
1.1318861752207736
1.1681030292288759
1.2085823265096078
1.251155703216659
1.2943510830287965
1.2761505137206326
1.2335206588398242
1.191324958218884
1.1525603438278162
1.1182324070038832
1.088760885503717
1.0644734322407134
1.0432887007140952
1.026201768248007
1.0160297572382329
1.0106480877890416
1.0063691032863067
1.0063691032863067
1.0106480877890416
1.0160297572382329
1.026201768248007
1.0432887007140952
1.0644734322407134
1.088760885503717
1.1182324070038832
1.1525603438278162
1.191324958218884
1.2335206588398242
1.2761505137206326
1.2590531672642238
1.2162510727691211
1.1747582530852012
1.1377788444866213
1.1054120553067455
1.078071938644909
1.0552042542782054
1.03323075822457
1.0160297572382329
1.0057548737300899
1.00217449416618
1.0005346943518978
1.0005346943518978
1.00217449416618
1.0057548737300899
1.0160297572382329
1.03323075822457
1.0552042542782054
1.078071938644909
1.1054120553067457
1.1377788444866213
1.1747582530852012
1.2162510727691211
1.2590531672642238
1.2469840140539903
1.2037528505969017
1.161813757234748
1.124849618884485
1.0935652687677844
1.0683129866805634
1.0459350763156978
1.0253650948642585
1.0106480877890416
1.00217449416618
1
1
1
1
1.00217449416618
1.0106480877890416
1.0253650948642585
1.0459350763156974
1.0683129866805634
1.0935652687677844
1.124849618884485
1.161813757234748
1.2037528505969017
1.2469840140539903
1.240905418619915
1.1974548225190926
1.1552871215217395
1.1181072362517988
1.0866287883675918
1.0613419681053586
1.0388552655781413
1.0190621731108491
1.0063691032863067
1.0005346943518978
1
1
1
1
1.0005346943518978
1.0063691032863067
1.0190621731108491
1.0388552655781413
1.0613419681053586
1.0866287883675918
1.1181072362517988
1.1552871215217395
1.1974548225190926
1.240905418619915
1.240905418619915
1.1974548225190926
1.1552871215217395
1.1181072362517988
1.0866287883675918
1.0613419681053586
1.0388552655781413
1.0190621731108491
1.0063691032863067
1.0005346943518978
1
1
1
1
1.0005346943518978
1.0063691032863067
1.0190621731108491
1.0388552655781413
1.0613419681053586
1.0866287883675918
1.1181072362517988
1.1552871215217395
1.1974548225190926
1.240905418619915
1.2469840140539903
1.2037528505969017
1.161813757234748
1.124849618884485
1.0935652687677844
1.0683129866805634
1.0459350763156976
1.0253650948642585
1.0106480877890416
1.00217449416618
1
1
1
1
1.00217449416618
1.0106480877890416
1.0253650948642585
1.0459350763156974
1.0683129866805632
1.0935652687677844
1.124849618884485
1.161813757234748
1.2037528505969017
1.2469840140539903
1.2590531672642238
1.2162510727691211
1.1747582530852012
1.1377788444866213
1.1054120553067455
1.078071938644909
1.0552042542782054
1.03323075822457
1.0160297572382329
1.0057548737300899
1.00217449416618
1.0005346943518978
1.0005346943518978
1.00217449416618
1.0057548737300899
1.0160297572382329
1.03323075822457
1.0552042542782056
1.078071938644909
1.1054120553067455
1.1377788444866213
1.1747582530852012
1.2162510727691211
1.2590531672642238
1.2761505137206326
1.2335206588398242
1.191324958218884
1.1525603438278162
1.1182324070038832
1.088760885503717
1.0644734322407134
1.0432887007140952
1.026201768248007
1.0160297572382329
1.0106480877890416
1.0063691032863067
1.0063691032863067
1.0106480877890416
1.0160297572382329
1.0262017682480067
1.0432887007140952
1.0644734322407134
1.088760885503717
1.1182324070038832
1.1525603438278162
1.191324958218884
1.2335206588398242
1.2761505137206326
1.2943510830287965
1.2511557032166591
1.2085823265096078
1.1681030292288759
1.1318861752207736
1.1008097616770764
1.0758802868237805
1.057389349184214
1.0432887007140952
1.03323075822457
1.0253650948642585
1.0190621731108491
1.0190621731108491
1.0253650948642585
1.03323075822457
1.0432887007140952
1.057389349184214
1.0758802868237805
1.1008097616770764
1.1318861752207736
1.1681030292288759
1.2085823265096078
1.2511557032166594
1.2943510830287968
1.3131427995965261
1.2687907588229221
1.2262191538681178
1.1852506475754312
1.1490472623258738
1.1184466897823642
1.0939192191645626
1.0758802868237805
1.0644734322407134
1.0552042542782054
1.0459350763156978
1.0388552655781413
1.0388552655781413
1.0459350763156976
1.0552042542782054
1.0644734322407134
1.0758802868237805
1.0939192191645624
1.1184466897823642
1.1490472623258738
1.1852506475754312
1.2262191538681178
1.2687907588229221
1.3131427995965261
1.3325006535280146
1.2870045537220787
1.2457762879684118
1.2075780692258515
1.1724220020479432
1.142447695832352
1.1184466897823642
1.1008097616770764
1.088760885503717
1.078071938644909
1.0683129866805634
1.0613419681053586
1.0613419681053586
1.0683129866805632
1.078071938644909
1.088760885503717
1.1008097616770764
1.1184466897823642
1.1424476958323517
1.1724220020479432
1.2075780692258515
1.2457762879684113
1.2870045537220787
1.3325006535280148
1.3543801276691911
1.3096249001417999
1.269256515155057
1.233577242402146
1.2013000957001958
1.1724220020479432
1.1490472623258738
1.1318861752207736
1.1182324070038832
1.1054120553067455
1.0935652687677844
1.0866287883675918
1.0866287883675918
1.0935652687677844
1.1054120553067455
1.1182324070038832
1.1318861752207736
1.1490472623258738
1.1724220020479432
1.2013000957001958
1.233577242402146
1.269256515155057
1.3096249001417999
1.3543801276691911
1.3813779574545133
1.3375264147624926
1.2980260522730458
1.2632850936814002
1.233577242402146
1.2075780692258515
1.1852506475754312
1.1681030292288759
1.1525603438278162
1.1377788444866213
1.124849618884485
1.1181072362517988
1.1181072362517988
1.124849618884485
1.1377788444866213
1.1525603438278162
1.1681030292288759
1.1852506475754312
1.2075780692258515
1.233577242402146
1.2632850936814002
1.2980260522730458
1.3375264147624928
1.3813779574545133
1.413218831534284
1.3703865566508349
1.3318611177001423
1.2980260522730458
1.269256515155057
1.2457762879684118
1.2262191538681178
1.2085823265096078
1.191324958218884
1.1747582530852012
1.161813757234748
1.1552871215217395
1.1552871215217395
1.161813757234748
1.1747582530852012
1.191324958218884
1.2085823265096078
1.2262191538681178
1.2457762879684118
1.269256515155057
1.2980260522730458
1.331861117700142
1.3703865566508349
1.413218831534284
1.4495836449170454
1.4078581577904756
1.3703865566508349
1.3375264147624928
1.3096249001417999
1.2870045537220787
1.2687907588229221
1.2511557032166591
1.2335206588398242
1.2162510727691211
1.2037528505969017
1.1974548225190926
1.1974548225190926
1.2037528505969017
1.2162510727691211
1.2335206588398242
1.2511557032166591
1.2687907588229221
1.2870045537220787
1.3096249001417999
1.3375264147624926
1.3703865566508349
1.4078581577904756
1.4495836449170454
1.490141233160395
1.4495836449170454
1.4132188315342842
1.3813779574545133
1.3543801276691911
1.3325006535280148
1.3131427995965261
1.2943510830287968
1.2761505137206326
1.2590531672642238
1.2469840140539903
1.240905418619915
1.240905418619915
1.2469840140539903
1.2590531672642238
1.2761505137206326
1.2943510830287965
1.3131427995965261
1.3325006535280146
1.3543801276691911
1.3813779574545133
1.413218831534284
1.4495836449170454
1.490141233160395
1.4283159742488514
1.3862699173852793
1.3481984297719418
1.3147838611641098
1.2863891598041461
1.263332708311231
1.2428980458463217
1.2230275002526398
1.2037490078524828
1.1856140384530607
1.1727893679110093
1.166324152257497
1.166324152257497
1.1727893679110093
1.185614038453061
1.2037490078524828
1.2230275002526398
1.2428980458463217
1.2633327083112307
1.2863891598041461
1.3147838611641098
1.3481984297719418
1.3862699173852793
1.4283159742488514
1.3862699173852793
1.3425781663253704
1.3032309292238786
1.2686325119686197
1.2391807452134744
1.2152498761727026
1.1959437820862857
1.1775521164956708
1.1597790056708304
1.1422365218736998
1.1289191845345954
1.1222012528349452
1.1222012528349452
1.1289191845345954
1.1422365218736998
1.1597790056708304
1.1775521164956708
1.1959437820862857
1.2152498761727026
1.2391807452134744
1.2686325119686197
1.3032309292238786
1.3425781663253704
1.3862699173852793
1.3481984297719418
1.3032309292238786
1.2626581394335816
1.2269161228934724
1.1964378970510596
1.1716343216763112
1.1524743311168937
1.1348392867400587
1.1172042423632234
1.0996381884975208
1.0857985075096748
1.07881209001582
1.07881209001582
1.0857985075096748
1.0996381884975208
1.1172042423632234
1.1348392867400587
1.1524743311168937
1.171634321676311
1.1964378970510596
1.2269161228934724
1.2626581394335816
1.3032309292238786
1.3481984297719418
1.3147838611641098
1.2686325119686197
1.2269161228934724
1.1901011587903048
1.1586549257816314
1.132688978880114
1.1106748013767223
1.0925254593390452
1.0758915087381298
1.0600414573834491
1.0461519285050747
1.0388989287553199
1.0388989287553199
1.0461519285050747
1.0600414573834491
1.0758915087381298
1.0925254593390452
1.1106748013767223
1.1326889788801138
1.1586549257816314
1.1901011587903048
1.2269161228934724
1.2686325119686197
1.3147838611641098
1.2863891598041461
1.2391807452134744
1.1964378970510596
1.1586549257816314
1.1259935388493751
1.0969743696738543
1.0721272328734595
1.0537141481759782
1.0390336416517096
1.0252233924505425
1.012438733684894
1.0049424441825192
1.0049424441825192
1.012438733684894
1.0252233924505425
1.0390336416517096
1.0537141481759782
1.0721272328734595
1.0969743696738545
1.1259935388493754
1.1586549257816314
1.1964378970510596
1.2391807452134744
1.2863891598041461
1.263332708311231
1.2152498761727029
1.171634321676311
1.1326889788801138
1.0969743696738543
1.065051139674976
1.039264254314293
1.020259439463246
1.0072474662232485
0.9956838340075165
0.9851090446852374
0.9775635638750335
0.9775635638750335
0.9851090446852374
0.9956838340075165
1.0072474662232485
1.0202594394632463
1.039264254314293
1.065051139674976
1.0969743696738545
1.132688978880114
1.171634321676311
1.2152498761727026
1.263332708311231
1.2428980458463217
1.1959437820862857
1.152474331116894
1.1106748013767223
1.0721272328734595
1.039264254314293
1.0128210357550447
0.9933104167310113
0.9810260892362802
0.9716892604612755
0.9624200824987675
0.9549417793840437
0.9549417793840437
0.9624200824987675
0.9716892604612755
0.9810260892362802
0.9933104167310113
1.0128210357550447
1.039264254314293
1.0721272328734595
1.1106748013767225
1.1524743311168937
1.195943782086286
1.242898045846322
1.2230275002526398
1.1775521164956708
1.1348392867400587
1.0925254593390452
1.0537141481759782
1.020259439463246
0.9933104167310113
0.9734088131431464
0.9594539230699027
0.9493230182272137
0.9407560634727247
0.9338822762319208
0.9338822762319208
0.9407560634727247
0.9493230182272137
0.9594539230699027
0.9734088131431464
0.9933104167310113
1.020259439463246
1.0537141481759782
1.0925254593390452
1.1348392867400585
1.1775521164956708
1.2230275002526398
1.2037490078524828
1.1597790056708304
1.1172042423632234
1.0758915087381298
1.0390336416517096
1.0072474662232485
0.9810260892362802
0.9594539230699027
0.9416679151112897
0.9305723296919427
0.9246934359810031
0.9200147636011021
0.9200147636011021
0.9246934359810031
0.9305723296919427
0.9416679151112897
0.9594539230699027
0.9810260892362802
1.0072474662232485
1.0390336416517096
1.0758915087381298
1.1172042423632236
1.1597790056708301
1.2037490078524828
1.185614038453061
1.1422365218736998
1.0996381884975208
1.0600414573834491
1.0252233924505425
0.9956838340075165
0.9716892604612751
0.9493230182272137
0.9305723296919427
0.9193428409611597
0.9154245517528715
0.9136290646627616
0.9136290646627616
0.9154245517528715
0.9193428409611597
0.9305723296919427
0.9493230182272137
0.9716892604612755
0.9956838340075165
1.0252233924505425
1.0600414573834491
1.0996381884975206
1.1422365218736998
1.1856140384530607
1.1727893679110093
1.1289191845345954
1.0857985075096748
1.0461519285050747
1.012438733684894
0.9851090446852374
0.9624200824987675
0.9407560634727247
0.9246934359810031
0.9154245517528715
0.9130434782608696
0.9130434782608696
0.9130434782608696
0.9130434782608696
0.9154245517528715
0.9246934359810031
0.9407560634727247
0.9624200824987672
0.9851090446852373
1.012438733684894
1.0461519285050747
1.0857985075096748
1.1289191845345952
1.1727893679110093
1.166324152257497
1.1222012528349452
1.07881209001582
1.0388989287553199
1.0049424441825192
0.9775635638750335
0.9549417793840437
0.9338822762319208
0.9200147636011021
0.9136290646627616
0.9130434782608696
0.9130434782608696
0.9130434782608696
0.9130434782608696
0.9136290646627616
0.9200147636011021
0.9338822762319208
0.9549417793840437
0.9775635638750334
1.0049424441825192
1.0388989287553199
1.07881209001582
1.122201252834945
1.166324152257497
1.166324152257497
1.1222012528349452
1.07881209001582
1.0388989287553199
1.0049424441825192
0.9775635638750335
0.9549417793840437
0.9338822762319208
0.9200147636011021
0.9136290646627616
0.9130434782608696
0.9130434782608696
0.9130434782608696
0.9130434782608696
0.9136290646627616
0.9200147636011021
0.9338822762319208
0.9549417793840437
0.9775635638750334
1.0049424441825192
1.0388989287553199
1.07881209001582
1.122201252834945
1.166324152257497
1.1727893679110093
1.1289191845345954
1.0857985075096748
1.0461519285050747
1.012438733684894
0.9851090446852374
0.9624200824987674
0.9407560634727247
0.9246934359810031
0.9154245517528715
0.9130434782608696
0.9130434782608696
0.9130434782608696
0.9130434782608696
0.9154245517528715
0.9246934359810031
0.9407560634727247
0.9624200824987671
0.9851090446852373
1.012438733684894
1.0461519285050747
1.0857985075096748
1.1289191845345952
1.1727893679110093
1.1856140384530607
1.1422365218736998
1.0996381884975208
1.0600414573834491
1.0252233924505425
0.9956838340075165
0.9716892604612755
0.9493230182272137
0.9305723296919427
0.9193428409611597
0.9154245517528715
0.9136290646627616
0.9136290646627616
0.9154245517528715
0.9193428409611597
0.9305723296919427
0.9493230182272137
0.9716892604612755
0.9956838340075163
1.0252233924505425
1.0600414573834491
1.0996381884975208
1.1422365218736998
1.185614038453061
1.2037490078524828
1.1597790056708301
1.1172042423632234
1.0758915087381298
1.0390336416517096
1.0072474662232485
0.9810260892362802
0.9594539230699027
0.9416679151112897
0.9305723296919427
0.9246934359810031
0.9200147636011021
0.9200147636011021
0.9246934359810031
0.9305723296919427
0.9416679151112897
0.9594539230699027
0.9810260892362802
1.0072474662232482
1.0390336416517096
1.0758915087381298
1.1172042423632234
1.1597790056708304
1.2037490078524828
1.2230275002526398
1.1775521164956708
1.1348392867400587
1.0925254593390452
1.0537141481759782
1.020259439463246
0.9933104167310113
0.9734088131431464
0.9594539230699027
0.9493230182272137
0.9407560634727247
0.9338822762319208
0.9338822762319208
0.9407560634727247
0.9493230182272137
0.9594539230699027
0.9734088131431464
0.9933104167310112
1.020259439463246
1.0537141481759782
1.0925254593390452
1.1348392867400585
1.1775521164956708
1.2230275002526398
1.2428980458463217
1.1959437820862857
1.1524743311168937
1.110674801376722
1.0721272328734595
1.039264254314293
1.0128210357550447
0.9933104167310112
0.9810260892362802
0.9716892604612755
0.9624200824987675
0.9549417793840437
0.9549417793840437
0.9624200824987674
0.9716892604612755
0.9810260892362802
0.9933104167310112
1.0128210357550447
1.039264254314293
1.0721272328734595
1.1106748013767223
1.1524743311168937
1.1959437820862857
1.2428980458463217
1.2633327083112307
1.2152498761727026
1.171634321676311
1.132688978880114
1.0969743696738543
1.065051139674976
1.039264254314293
1.020259439463246
1.0072474662232482
0.9956838340075163
0.9851090446852373
0.9775635638750334
0.9775635638750334
0.9851090446852373
0.9956838340075163
1.0072474662232482
1.020259439463246
1.039264254314293
1.065051139674976
1.0969743696738543
1.1326889788801138
1.171634321676311
1.2152498761727026
1.2633327083112307
1.2863891598041461
1.2391807452134744
1.1964378970510596
1.1586549257816314
1.1259935388493751
1.0969743696738543
1.0721272328734595
1.0537141481759782
1.0390336416517096
1.0252233924505425
1.012438733684894
1.0049424441825192
1.0049424441825192
1.012438733684894
1.0252233924505425
1.0390336416517096
1.0537141481759782
1.0721272328734595
1.0969743696738543
1.1259935388493751
1.1586549257816314
1.1964378970510596
1.2391807452134744
1.2863891598041461
1.3147838611641098
1.2686325119686197
1.2269161228934724
1.1901011587903048
1.1586549257816314
1.1326889788801138
1.1106748013767223
1.0925254593390452
1.0758915087381298
1.0600414573834491
1.0461519285050747
1.0388989287553199
1.0388989287553199
1.0461519285050747
1.0600414573834491
1.0758915087381298
1.0925254593390452