# vtk DataFile Version 4.1
Header:
ASCII

DATASET UNSTRUCTURED_GRID
POINTS 9261 double
-1 -1 -1
-0.9 -1 -1
-0.8 -1 -1
-0.7 -1 -1
-0.6 -1 -1
-0.5 -1 -1
-0.3999999999999999 -1 -1
-0.29999999999999993 -1 -1
-0.19999999999999996 -1 -1
-0.09999999999999998 -1 -1
0 -1 -1
0.10000000000000009 -1 -1
0.20000000000000018 -1 -1
0.30000000000000004 -1 -1
0.40000000000000013 -1 -1
0.5 -1 -1
0.6000000000000001 -1 -1
0.7000000000000002 -1 -1
0.8 -1 -1
0.9000000000000001 -1 -1
1 -1 -1
-1 -0.9 -1
-0.9 -0.9 -1
-0.8 -0.9 -1
-0.7 -0.9 -1
-0.6 -0.9 -1
-0.5 -0.9 -1
-0.3999999999999999 -0.9 -1
-0.29999999999999993 -0.9 -1
-0.19999999999999996 -0.9 -1
-0.09999999999999998 -0.9 -1
0 -0.9 -1
0.10000000000000009 -0.9 -1
0.20000000000000018 -0.9 -1
0.30000000000000004 -0.9 -1
0.40000000000000013 -0.9 -1
0.5 -0.9 -1
0.6000000000000001 -0.9 -1
0.7000000000000002 -0.9 -1
0.8 -0.9 -1
0.9000000000000001 -0.9 -1
1 -0.9 -1
-1 -0.8 -1
-0.9 -0.8 -1
-0.8 -0.8 -1
-0.7 -0.8 -1
-0.6 -0.8 -1
-0.5 -0.8 -1
-0.3999999999999999 -0.8 -1
-0.29999999999999993 -0.8 -1
-0.19999999999999996 -0.8 -1
-0.09999999999999998 -0.8 -1
0 -0.8 -1
0.10000000000000009 -0.8 -1
0.20000000000000018 -0.8 -1
0.30000000000000004 -0.8 -1
0.40000000000000013 -0.8 -1
0.5 -0.8 -1
0.6000000000000001 -0.8 -1
0.7000000000000002 -0.8 -1
0.8 -0.8 -1
0.9000000000000001 -0.8 -1
1 -0.8 -1
-1 -0.7 -1
-0.9 -0.7 -1
-0.8 -0.7 -1
-0.7 -0.7 -1
-0.6 -0.7 -1
-0.5 -0.7 -1
-0.3999999999999999 -0.7 -1
-0.29999999999999993 -0.7 -1
-0.19999999999999996 -0.7 -1
-0.09999999999999998 -0.7 -1
0 -0.7 -1
0.10000000000000009 -0.7 -1
0.20000000000000018 -0.7 -1
0.30000000000000004 -0.7 -1
0.40000000000000013 -0.7 -1
0.5 -0.7 -1
0.6000000000000001 -0.7 -1
0.7000000000000002 -0.7 -1
0.8 -0.7 -1
0.9000000000000001 -0.7 -1
1 -0.7 -1
-1 -0.6 -1
-0.9 -0.6 -1
-0.8 -0.6 -1
-0.7 -0.6 -1
-0.6 -0.6 -1
-0.5 -0.6 -1
-0.3999999999999999 -0.6 -1
-0.29999999999999993 -0.6 -1
-0.19999999999999996 -0.6 -1
-0.09999999999999998 -0.6 -1
0 -0.6 -1
0.10000000000000009 -0.6 -1
0.20000000000000018 -0.6 -1
0.30000000000000004 -0.6 -1
0.40000000000000013 -0.6 -1
0.5 -0.6 -1
0.6000000000000001 -0.6 -1
0.7000000000000002 -0.6 -1
0.8 -0.6 -1
0.9000000000000001 -0.6 -1
1 -0.6 -1
-1 -0.5 -1
-0.9 -0.5 -1
-0.8 -0.5 -1
-0.7 -0.5 -1
-0.6 -0.5 -1
-0.5 -0.5 -1
-0.3999999999999999 -0.5 -1
-0.29999999999999993 -0.5 -1
-0.19999999999999996 -0.5 -1
-0.09999999999999998 -0.5 -1
0 -0.5 -1
0.10000000000000009 -0.5 -1
0.20000000000000018 -0.5 -1
0.30000000000000004 -0.5 -1
0.40000000000000013 -0.5 -1
0.5 -0.5 -1
0.6000000000000001 -0.5 -1
0.7000000000000002 -0.5 -1
0.8 -0.5 -1
0.9000000000000001 -0.5 -1
1 -0.5 -1
-1 -0.3999999999999999 -1
-0.9 -0.3999999999999999 -1
-0.8 -0.3999999999999999 -1
-0.7 -0.3999999999999999 -1
-0.6 -0.3999999999999999 -1
-0.5 -0.3999999999999999 -1
-0.3999999999999999 -0.3999999999999999 -1
-0.29999999999999993 -0.3999999999999999 -1
-0.19999999999999996 -0.3999999999999999 -1
-0.09999999999999998 -0.3999999999999999 -1
0 -0.3999999999999999 -1
0.10000000000000009 -0.3999999999999999 -1
0.20000000000000018 -0.3999999999999999 -1
0.30000000000000004 -0.3999999999999999 -1
0.40000000000000013 -0.3999999999999999 -1
0.5 -0.3999999999999999 -1
0.6000000000000001 -0.3999999999999999 -1
0.7000000000000002 -0.3999999999999999 -1
0.8 -0.3999999999999999 -1
0.9000000000000001 -0.3999999999999999 -1
1 -0.3999999999999999 -1
-1 -0.29999999999999993 -1
-0.9 -0.29999999999999993 -1
-0.8 -0.29999999999999993 -1
-0.7 -0.29999999999999993 -1
-0.6 -0.29999999999999993 -1
-0.5 -0.29999999999999993 -1
-0.3999999999999999 -0.29999999999999993 -1
-0.29999999999999993 -0.29999999999999993 -1
-0.19999999999999996 -0.29999999999999993 -1
-0.09999999999999998 -0.29999999999999993 -1
0 -0.29999999999999993 -1
0.10000000000000009 -0.29999999999999993 -1
0.20000000000000018 -0.29999999999999993 -1
0.30000000000000004 -0.29999999999999993 -1
0.40000000000000013 -0.29999999999999993 -1
0.5 -0.29999999999999993 -1
0.6000000000000001 -0.29999999999999993 -1
0.7000000000000002 -0.29999999999999993 -1
0.8 -0.29999999999999993 -1
0.9000000000000001 -0.29999999999999993 -1
1 -0.29999999999999993 -1
-1 -0.19999999999999996 -1
-0.9 -0.19999999999999996 -1
-0.8 -0.19999999999999996 -1
-0.7 -0.19999999999999996 -1
-0.6 -0.19999999999999996 -1
-0.5 -0.19999999999999996 -1
-0.3999999999999999 -0.19999999999999996 -1
-0.29999999999999993 -0.19999999999999996 -1
-0.19999999999999996 -0.19999999999999996 -1
-0.09999999999999998 -0.19999999999999996 -1
0 -0.19999999999999996 -1
0.10000000000000009 -0.19999999999999996 -1
0.20000000000000018 -0.19999999999999996 -1
0.30000000000000004 -0.19999999999999996 -1
0.40000000000000013 -0.19999999999999996 -1
0.5 -0.19999999999999996 -1
0.6000000000000001 -0.19999999999999996 -1
0.7000000000000002 -0.19999999999999996 -1
0.8 -0.19999999999999996 -1
0.9000000000000001 -0.19999999999999996 -1
1 -0.19999999999999996 -1
-1 -0.09999999999999998 -1
-0.9 -0.09999999999999998 -1
-0.8 -0.09999999999999998 -1
-0.7 -0.09999999999999998 -1
-0.6 -0.09999999999999998 -1
-0.5 -0.09999999999999998 -1
-0.3999999999999999 -0.09999999999999998 -1
-0.29999999999999993 -0.09999999999999998 -1
-0.19999999999999996 -0.09999999999999998 -1
-0.09999999999999998 -0.09999999999999998 -1
0 -0.09999999999999998 -1
0.10000000000000009 -0.09999999999999998 -1
0.20000000000000018 -0.09999999999999998 -1
0.30000000000000004 -0.09999999999999998 -1
0.40000000000000013 -0.09999999999999998 -1
0.5 -0.09999999999999998 -1
0.6000000000000001 -0.09999999999999998 -1
0.7000000000000002 -0.09999999999999998 -1
0.8 -0.09999999999999998 -1
0.9000000000000001 -0.09999999999999998 -1
1 -0.09999999999999998 -1
-1 0 -1
-0.9 0 -1
-0.8 0 -1
-0.7 0 -1
-0.6 0 -1
-0.5 0 -1
-0.3999999999999999 0 -1
-0.29999999999999993 0 -1
-0.19999999999999996 0 -1
-0.09999999999999998 0 -1
0 0 -1
0.10000000000000009 0 -1
0.20000000000000018 0 -1
0.30000000000000004 0 -1
0.40000000000000013 0 -1
0.5 0 -1
0.6000000000000001 0 -1
0.7000000000000002 0 -1
0.8 0 -1
0.9000000000000001 0 -1
1 0 -1
-1 0.10000000000000009 -1
-0.9 0.10000000000000009 -1
-0.8 0.10000000000000009 -1
-0.7 0.10000000000000009 -1
-0.6 0.10000000000000009 -1
-0.5 0.10000000000000009 -1
-0.3999999999999999 0.10000000000000009 -1
-0.29999999999999993 0.10000000000000009 -1
-0.19999999999999996 0.10000000000000009 -1
-0.09999999999999998 0.10000000000000009 -1
0 0.10000000000000009 -1
0.10000000000000009 0.10000000000000009 -1
0.20000000000000018 0.10000000000000009 -1
0.30000000000000004 0.10000000000000009 -1
0.40000000000000013 0.10000000000000009 -1
0.5 0.10000000000000009 -1
0.6000000000000001 0.10000000000000009 -1
0.7000000000000002 0.10000000000000009 -1
0.8 0.10000000000000009 -1
0.9000000000000001 0.10000000000000009 -1
1 0.10000000000000009 -1
-1 0.20000000000000018 -1
-0.9 0.20000000000000018 -1
-0.8 0.20000000000000018 -1
-0.7 0.20000000000000018 -1
-0.6 0.20000000000000018 -1
-0.5 0.20000000000000018 -1
-0.3999999999999999 0.20000000000000018 -1
-0.29999999999999993 0.20000000000000018 -1
-0.19999999999999996 0.20000000000000018 -1
-0.09999999999999998 0.20000000000000018 -1
0 0.20000000000000018 -1
0.10000000000000009 0.20000000000000018 -1
0.20000000000000018 0.20000000000000018 -1
0.30000000000000004 0.20000000000000018 -1
0.40000000000000013 0.20000000000000018 -1
0.5 0.20000000000000018 -1
0.6000000000000001 0.20000000000000018 -1
0.7000000000000002 0.20000000000000018 -1
0.8 0.20000000000000018 -1
0.9000000000000001 0.20000000000000018 -1
1 0.20000000000000018 -1
-1 0.30000000000000004 -1
-0.9 0.30000000000000004 -1
-0.8 0.30000000000000004 -1
-0.7 0.30000000000000004 -1
-0.6 0.30000000000000004 -1
-0.5 0.30000000000000004 -1
-0.3999999999999999 0.30000000000000004 -1
-0.29999999999999993 0.30000000000000004 -1
-0.19999999999999996 0.30000000000000004 -1
-0.09999999999999998 0.30000000000000004 -1
0 0.30000000000000004 -1
0.10000000000000009 0.30000000000000004 -1
0.20000000000000018 0.30000000000000004 -1
0.30000000000000004 0.30000000000000004 -1
0.40000000000000013 0.30000000000000004 -1
0.5 0.30000000000000004 -1
0.6000000000000001 0.30000000000000004 -1
0.7000000000000002 0.30000000000000004 -1
0.8 0.30000000000000004 -1
0.9000000000000001 0.30000000000000004 -1
1 0.30000000000000004 -1
-1 0.40000000000000013 -1
-0.9 0.40000000000000013 -1
-0.8 0.40000000000000013 -1
-0.7 0.40000000000000013 -1
-0.6 0.40000000000000013 -1
-0.5 0.40000000000000013 -1
-0.3999999999999999 0.40000000000000013 -1
-0.29999999999999993 0.40000000000000013 -1
-0.19999999999999996 0.40000000000000013 -1
-0.09999999999999998 0.40000000000000013 -1
0 0.40000000000000013 -1
0.10000000000000009 0.40000000000000013 -1
0.20000000000000018 0.40000000000000013 -1
0.30000000000000004 0.40000000000000013 -1
0.40000000000000013 0.40000000000000013 -1
0.5 0.40000000000000013 -1
0.6000000000000001 0.40000000000000013 -1
0.7000000000000002 0.40000000000000013 -1
0.8 0.40000000000000013 -1
0.9000000000000001 0.40000000000000013 -1
1 0.40000000000000013 -1
-1 0.5 -1
-0.9 0.5 -1
-0.8 0.5 -1
-0.7 0.5 -1
-0.6 0.5 -1
-0.5 0.5 -1
-0.3999999999999999 0.5 -1
-0.29999999999999993 0.5 -1
-0.19999999999999996 0.5 -1
-0.09999999999999998 0.5 -1
0 0.5 -1
0.10000000000000009 0.5 -1
0.20000000000000018 0.5 -1
0.30000000000000004 0.5 -1
0.40000000000000013 0.5 -1
0.5 0.5 -1
0.6000000000000001 0.5 -1
0.7000000000000002 0.5 -1
0.8 0.5 -1
0.9000000000000001 0.5 -1
1 0.5 -1
-1 0.6000000000000001 -1
-0.9 0.6000000000000001 -1
-0.8 0.6000000000000001 -1
-0.7 0.6000000000000001 -1
-0.6 0.6000000000000001 -1
-0.5 0.6000000000000001 -1
-0.3999999999999999 0.6000000000000001 -1
-0.29999999999999993 0.6000000000000001 -1
-0.19999999999999996 0.6000000000000001 -1
-0.09999999999999998 0.6000000000000001 -1
0 0.6000000000000001 -1
0.10000000000000009 0.6000000000000001 -1
0.20000000000000018 0.6000000000000001 -1
0.30000000000000004 0.6000000000000001 -1
0.40000000000000013 0.6000000000000001 -1
0.5 0.6000000000000001 -1
0.6000000000000001 0.6000000000000001 -1
[...]
POINT_DATA 9261
SCALARS phi1 double 1
LOOKUP_TABLE default
1.490141233160395
1.4438534789804693
1.403176696914265
1.3686112730656754
1.340629997710655
1.3179301497022655
1.2962040709427614
1.275256460383978
1.256167146040695
1.244168758164271
1.2401434992741867
1.244168758164271
1.256167146040695
1.2752564603839782
1.2962040709427614
1.3179301497022655
1.340629997710655
1.3686112730656756
1.403176696914265
1.4438534789804693
1.490141233160395
1.4438534789804693
1.396031820111285
1.3539190584235268
1.318062513980908
1.2889843927530285
1.2668132941915622
1.2465329931582017
1.2262526921248416
1.2068312014795632
1.1943372843818474
1.1901434992741868
1.1943372843818474
1.2068312014795632
1.2262526921248416
1.2465329931582017
1.2668132941915622
1.2889843927530285
1.318062513980908
1.3539190584235266
1.396031820111285
1.4438534789804693
1.403176696914265
1.3539190584235266
1.3104536583800555
1.2733737726060221
1.243188272893902
1.218372288392235
1.197729906694372
1.1784351432638827
1.160108921552548
1.147106233034158
1.1427391259013653
1.147106233034158
1.1601089215525482
1.1784351432638827
1.197729906694372
1.218372288392235
1.243188272893902
1.2733737726060221
1.3104536583800555
1.3539190584235268
1.403176696914265
1.3686112730656754
1.318062513980908
1.2733737726060221
1.23511824610477
1.2018448456943729
1.1734847841571663
1.1527667459027433
1.1358233558790396
1.119931762764849
1.1068745305551109
1.1023480513846782
1.106874530555111
1.1199317627648493
1.13582335587904
1.1527667459027433
1.1734847841571665
1.201844845694373
1.2351182461047698
1.2733737726060221
1.318062513980908
1.3686112730656754
1.340629997710655
1.2889843927530282
1.243188272893902
1.2018448456943729
1.1649319888510192
1.1353462308625055
1.113981862158897
1.099341199288531
1.0861742943718884
1.0744718437061898
1.0698082739058334
1.0744718437061898
1.0861742943718884
1.099341199288531
1.113981862158897
1.1353462308625055
1.1649319888510195
1.201844845694373
1.243188272893902
1.2889843927530285
1.340629997710655
1.3179301497022655
1.266813294191562
1.218372288392235
1.1734847841571663
1.1353462308625055
1.1049685919604249
1.0830051313379407
1.0696160605365987
1.0589448624729882
1.0483518296459065
1.0435715398198244
1.0483518296459065
1.0589448624729882
1.0696160605365987
1.083005131337941
1.1049685919604249
1.1353462308625055
1.1734847841571665
1.218372288392235
1.266813294191562
1.3179301497022657
1.2962040709427614
1.2465329931582017
1.197729906694372
1.1527667459027433
1.113981862158897
1.0830051313379407
1.0605721787823394
1.0446667635660298
1.033578381762826
1.0245724656370232
1.019803902718557
1.0245724656370232
1.033578381762826
1.0446667635660298
1.0605721787823394
1.0830051313379407
1.1139818621588973
1.1527667459027435
1.197729906694372
1.2465329931582017
1.2962040709427614
1.2752564603839782
1.2262526921248416
1.1784351432638827
1.1358233558790396
1.099341199288531
1.0696160605365987
1.0446667635660298
1.0248387056094381
1.014167409211089
1.0084994138877155
1.004987562112089
1.0084994138877155
1.014167409211089
1.0248387056094381
1.0446667635660298
1.0696160605365987
1.0993411992885311
1.13582335587904
1.1784351432638827
1.2262526921248413
1.275256460383978
1.256167146040695
1.2068312014795632
1.160108921552548
1.119931762764849
1.0861742943718884
1.058944862472988
1.033578381762826
1.014167409211089
1.0034255901710663
1.0007319651605355
1
1.0007319651605355
1.0034255901710663
1.014167409211089
1.033578381762826
1.0589448624729882
1.0861742943718884
1.1199317627648493
1.160108921552548
1.2068312014795632
1.256167146040695
1.244168758164271
1.1943372843818474
1.147106233034158
1.106874530555111
1.0744718437061898
1.0483518296459065
1.0245724656370232
1.0084994138877155
1.0007319651605355
1
1
1
1.0007319651605355
1.0084994138877155
1.0245724656370232
1.0483518296459062
1.0744718437061898
1.106874530555111
1.147106233034158
1.1943372843818474
1.244168758164271
1.2401434992741867
1.1901434992741868
1.1427391259013653
1.1023480513846782
1.0698082739058334
1.0435715398198244
1.019803902718557
1.004987562112089
1
1
0.9999999999999999
1
1
1.004987562112089
1.019803902718557
1.0435715398198244
1.0698082739058334
1.1023480513846784
1.1427391259013653
1.1901434992741868
1.2401434992741867
1.244168758164271
1.1943372843818474
1.147106233034158
1.106874530555111
1.0744718437061898
1.0483518296459065
1.0245724656370232
1.0084994138877155
1.0007319651605355
0.9999999999999999
1
1
1.0007319651605355
1.0084994138877155
1.0245724656370232
1.0483518296459065
1.0744718437061898
1.106874530555111
1.147106233034158
1.1943372843818474
1.244168758164271
1.256167146040695
1.2068312014795632
1.1601089215525482
1.1199317627648493
1.0861742943718884
1.0589448624729882
1.033578381762826
1.014167409211089
1.0034255901710663
1.0007319651605355
1
1.0007319651605355
1.0034255901710663
1.014167409211089
1.033578381762826
1.0589448624729882
1.0861742943718884
1.1199317627648493
1.1601089215525482
1.2068312014795632
1.256167146040695
1.275256460383978
1.2262526921248413
1.1784351432638827
1.1358233558790396
1.099341199288531
1.0696160605365987
1.0446667635660298
1.0248387056094381
1.014167409211089
1.0084994138877155
1.004987562112089
1.0084994138877155
1.014167409211089
1.0248387056094381
1.0446667635660298
1.0696160605365987
1.0993411992885311
1.13582335587904
1.1784351432638827
1.2262526921248416
1.2752564603839782
1.2962040709427614
1.2465329931582017
1.197729906694372
1.1527667459027433
1.113981862158897
1.083005131337941
1.0605721787823394
1.0446667635660298
1.033578381762826
1.0245724656370232
1.019803902718557
1.0245724656370232
1.033578381762826
1.0446667635660298
1.0605721787823394
1.083005131337941
1.1139818621588973
1.1527667459027435
1.197729906694372
1.2465329931582019
1.2962040709427616
1.3179301497022655
1.266813294191562
1.218372288392235
1.1734847841571663
1.1353462308625055
1.1049685919604249
1.0830051313379407
1.0696160605365987
1.0589448624729882
1.0483518296459065
1.0435715398198244
1.0483518296459065
1.0589448624729882
1.0696160605365987
1.083005131337941
1.1049685919604249
1.1353462308625055
1.1734847841571665
1.2183722883922348
1.2668132941915622
1.3179301497022657
1.340629997710655
1.2889843927530285
1.243188272893902
1.2018448456943729
1.1649319888510195
1.1353462308625055
1.113981862158897
1.0993411992885311
1.0861742943718884
1.0744718437061898
1.0698082739058334
1.0744718437061898
1.0861742943718884
1.0993411992885311
1.1139818621588973
1.1353462308625055
1.1649319888510195
1.2018448456943729
1.243188272893902
1.2889843927530285
1.340629997710655
1.3686112730656756
1.318062513980908
1.2733737726060221
1.23511824610477
1.2018448456943729
1.1734847841571665
1.1527667459027433
1.13582335587904
1.1199317627648493
1.106874530555111
1.1023480513846784
1.106874530555111
1.1199317627648493
1.13582335587904
1.1527667459027435
1.1734847841571665
1.2018448456943729
1.23511824610477
1.2733737726060221
1.3180625139809081
1.3686112730656756
1.403176696914265
1.3539190584235268
1.3104536583800555
1.2733737726060221
1.243188272893902
1.2183722883922348
1.197729906694372
1.1784351432638827
1.160108921552548
1.147106233034158
1.1427391259013653
1.147106233034158
1.1601089215525482
1.1784351432638827
1.197729906694372
1.218372288392235
1.243188272893902
1.2733737726060221
1.3104536583800555
1.3539190584235268
1.403176696914265
1.4438534789804693
1.396031820111285
1.3539190584235268
1.318062513980908
1.2889843927530285
1.266813294191562
1.2465329931582017
1.2262526921248416
1.2068312014795632
1.1943372843818474
1.1901434992741868
1.1943372843818474
1.2068312014795632
1.2262526921248416
1.2465329931582017
1.2668132941915622
1.2889843927530285
1.3180625139809081
1.3539190584235268
1.396031820111285
1.4438534789804693
1.490141233160395
1.4438534789804693
1.403176696914265
1.3686112730656754
1.340629997710655
1.3179301497022657
1.2962040709427614
1.2752564603839782
1.256167146040695
1.244168758164271
1.2401434992741867
1.244168758164271
1.256167146040695
1.275256460383978
1.2962040709427614
1.3179301497022657
1.340629997710655
1.3686112730656756
1.403176696914265
1.4438534789804693
1.490141233160395
1.4196283013038067
1.3709618841754698
1.3280543896471924
1.291479940169571
1.2617893682622392
1.2376443344483852
1.2144828581032079
1.1921001043742183
1.171662813198607
1.1587897772385094
1.1544668673602
1.1587897772385094
1.171662813198607
1.1921001043742185
1.2144828581032079
1.237644334448385
1.2617893682622392
1.291479940169571
1.3280543896471921
1.3709618841754698
1.4196283013038067
1.3709618841754698
1.3205031093720212
1.2758998533820742
1.2377852842313244
1.2067743715619927
1.1830674176142637
1.161862597929161
1.1414497909804984
1.121518010537742
1.1080625650027778
1.1035409588957426
1.1080625650027778
1.121518010537742
1.1414497909804984
1.161862597929161
1.1830674176142637
1.2067743715619927
1.2377852842313244
1.2758998533820742
1.3205031093720212
1.3709618841754696
1.3280543896471924
1.2758998533820742
1.229679799728214
1.1900858724725887
1.1577980643696313
1.1331928352748295
1.112769114210111
1.0924888131767507
1.0726958231314996
1.058620011601786
1.0538862979296038
1.058620011601786
1.0726958231314996
1.0924888131767505
1.112769114210111
1.1331928352748295
1.1577980643696313
1.190085872472589
1.229679799728214
1.2758998533820742
1.3280543896471921
1.291479940169571
1.2377852842313244
1.190085872472589
1.1491285210358608
1.1154039635567945
1.0870435490523704
1.0647510458117189
1.0463834454244167
1.0291116423146383
1.014886617061013
1.0099479419700537
1.014886617061013
1.0291116423146385
1.046383445424417
1.064751045811719
1.0870435490523702
1.1154039635567945
1.1491285210358608
1.1900858724725887
1.2377852842313244
1.2914799401695707
1.2617893682622392
1.2067743715619927
1.1577980643696313
1.1154039635567945
1.0778050276076714
1.0458655186168282
1.0226334672388506
1.0066651337714518
0.9922692259927339
0.9794454359561477
0.9743271329565487
0.9794454359561477
0.9922692259927339
1.006665133771452
1.0226334672388508
1.0458655186168284
1.0778050276076712
1.1154039635567945
1.1577980643696313
1.2067743715619927
1.2617893682622392
1.237644334448385
1.1830674176142637
1.1331928352748295
1.0870435490523702
1.0458655186168282
1.012807587015892
0.9887991371366885
0.9741160793538839
0.9629026195835184
0.9522442676973162
0.9469789571909176
0.9522442676973162
0.9629026195835184
0.9741160793538839
0.9887991371366887
1.012807587015892
1.0458655186168284
1.0870435490523702
1.1331928352748295
1.183067417614264
1.237644334448385
1.2144828581032079
1.161862597929161
1.1127691142101113
1.0647510458117189
1.0226334672388506
0.9887991371366885
0.9641930610036384
0.9483182462646556
0.9371681781620109
0.9272263679067422
0.9219544457292888
0.9272263679067422
0.9371681781620109
0.9483182462646556
0.9641930610036386
0.9887991371366887
1.0226334672388508
1.064751045811719
1.112769114210111
1.161862597929161
1.2144828581032079
1.1921001043742183
1.1414497909804981
1.0924888131767505
1.0463834454244167
1.0066651337714518
0.9741160793538839
0.9483182462646556
0.9275205509934691
0.9157158587170655
0.9094344769206111
0.9055385138137417
0.9094344769206111
0.9157158587170655
0.9275205509934692
0.9483182462646556
0.9741160793538841
1.006665133771452
1.046383445424417
1.0924888131767507
1.1414497909804981
1.1921001043742183
1.171662813198607
1.121518010537742
1.0726958231314996
1.0291116423146383
0.9922692259927339
0.9629026195835181
0.9371681781620111
0.9157158587170655
0.9038046885307425
0.9008132248663245
0.9
0.9008132248663245
0.9038046885307425
0.9157158587170655
0.9371681781620109
0.9629026195835184
0.9922692259927339
1.0291116423146385
1.0726958231314996
1.1215180105377422
1.171662813198607
1.1587897772385094
1.1080625650027778
1.058620011601786
1.014886617061013
0.9794454359561477
0.9522442676973162
0.9272263679067422
0.9094344769206111
0.9008132248663245
0.9
0.9
0.9
0.9008132248663245
0.9094344769206111
0.9272263679067422
0.9522442676973162
0.9794454359561477
1.014886617061013
1.058620011601786
1.108062565002778
1.1587897772385094
1.1544668673602
1.1035409588957426
1.0538862979296038
1.0099479419700537
0.9743271329565487
0.9469789571909176
0.9219544457292888
0.9055385138137417
0.9
0.9
0.8999999999999999
0.9
0.9
0.9055385138137417
0.9219544457292888
0.9469789571909176
0.9743271329565488
1.0099479419700539
1.0538862979296038
1.1035409588957428
1.1544668673602
1.1587897772385094
1.1080625650027778
1.058620011601786
1.014886617061013
0.9794454359561477
0.9522442676973162
0.9272263679067422
0.9094344769206111
0.9008132248663245
0.8999999999999999
0.9
0.9
0.9008132248663245
0.9094344769206111
0.9272263679067422
0.9522442676973162
0.9794454359561477
1.014886617061013
1.058620011601786
1.108062565002778
1.1587897772385094
1.171662813198607
1.121518010537742
1.0726958231314996
1.0291116423146385
0.9922692259927339
0.9629026195835184
0.9371681781620109
0.9157158587170655
0.9038046885307425
0.9008132248663245
0.9
0.9008132248663245
0.9038046885307425
0.9157158587170655
0.937168178162011
0.9629026195835184
0.9922692259927341
1.0291116423146385
1.0726958231314996
1.1215180105377422
1.171662813198607
1.1921001043742183
1.1414497909804981
1.0924888131767507
1.0463834454244167
1.006665133771452
0.9741160793538841
0.9483182462646556
0.9275205509934692
0.9157158587170655
0.9094344769206111
0.9055385138137417
0.9094344769206111
0.9157158587170655
0.9275205509934692
0.9483182462646556
0.9741160793538839
1.006665133771452
1.046383445424417
1.0924888131767505
1.1414497909804984
1.1921001043742183
1.214482858103208
1.161862597929161
1.112769114210111
1.0647510458117189
1.0226334672388508
0.9887991371366887
0.9641930610036386
0.9483182462646556
0.9371681781620109
0.9272263679067422
0.9219544457292888
0.9272263679067422
0.937168178162011
0.9483182462646556
0.9641930610036386
0.9887991371366887
1.0226334672388508
1.064751045811719
1.112769114210111
1.161862597929161
1.2144828581032079
1.2376443344483852
1.1830674176142637
1.1331928352748295
1.0870435490523702
1.0458655186168284
1.012807587015892
0.9887991371366885
0.9741160793538839
0.9629026195835184
0.9522442676973162
0.9469789571909176
0.9522442676973162
0.9629026195835184
0.9741160793538841
0.9887991371366887
1.012807587015892
1.0458655186168284
1.0870435490523704
1.1331928352748297
1.1830674176142637
1.237644334448385
1.2617893682622392
1.206774371561993
1.1577980643696313
1.1154039635567945
1.0778050276076714
1.0458655186168284
1.0226334672388508
1.006665133771452
0.9922692259927339
0.9794454359561477
0.9743271329565488
0.9794454359561477
0.9922692259927341
1.006665133771452
1.0226334672388508
1.0458655186168284
1.0778050276076714
1.1154039635567945
1.1577980643696315
1.206774371561993
1.2617893682622392
1.291479940169571
1.2377852842313246
1.190085872472589
1.149128521035861
1.1154039635567945
1.0870435490523704
1.064751045811719
1.046383445424417
1.0291116423146385
1.014886617061013
1.0099479419700539
1.014886617061013
1.0291116423146385
1.046383445424417
1.064751045811719
1.0870435490523707
1.1154039635567947
1.149128521035861
1.190085872472589
1.2377852842313246
1.291479940169571
1.3280543896471924
1.2758998533820742
1.229679799728214
1.190085872472589
1.1577980643696313
1.1331928352748297
1.1127691142101108
1.0924888131767505
1.0726958231314996
1.058620011601786
1.0538862979296038
1.058620011601786
1.0726958231314996
1.0924888131767507
1.112769114210111
1.1331928352748295
1.1577980643696313
1.190085872472589
1.229679799728214
1.2758998533820742
1.3280543896471924
1.3709618841754698
1.3205031093720214
1.2758998533820742
1.2377852842313246
1.206774371561993
1.1830674176142637
1.161862597929161
1.1414497909804981
1.1215180105377422
1.108062565002778
1.1035409588957428
1.108062565002778
1.1215180105377422
1.1414497909804984
1.161862597929161
1.1830674176142637
1.206774371561993
1.2377852842313246
1.2758998533820742
1.3205031093720214
1.3709618841754698
1.4196283013038067
1.3709618841754698
1.3280543896471924
1.291479940169571
1.2617893682622392
1.237644334448385
1.2144828581032079
1.1921001043742183
1.171662813198607
1.1587897772385094
1.1544668673602
1.1587897772385094
1.171662813198607
1.1921001043742183
1.214482858103208
1.2376443344483852
1.2617893682622392
1.291479940169571
1.3280543896471924
1.3709618841754698
1.4196283013038067
1.3528370681499977
1.3016758839895222
1.2564044257161489
1.217679783423519
1.18614334250021
1.1604254037593866
1.1356902005936682
1.1117222125814399
1.0897785861955738
1.0759262832231693
1.071269045072443
1.0759262832231693
1.0897785861955738
1.1117222125814399
1.1356902005936682
1.1604254037593866
1.18614334250021
1.2176797834235191
1.2564044257161489
1.3016758839895222
1.3528370681499977
1.3016758839895222
1.2484198336133265
1.2011428120578953
1.1605757316769856
1.1274431262626032
1.1020309132317625
1.0792350603852012
1.0573331686838354
1.036463405785218
1.0218886394964444
1.0169839681784043
1.0218886394964444
1.0364634057852182
1.0573331686838354
1.0792350603852012
1.1020309132317625
1.1274431262626032
1.1605757316769856
1.201142812057895
1.2484198336133265
1.3016758839895222
1.2564044257161489
1.201142812057895
1.1519270935947163
1.1095620771082582
1.0748581194539188
1.0485761541038576
1.0279662130657683
1.0076859120324078
0.9874056436970244
0.9720956255455196
0.966938418517299
0.9720956255455196
0.9874056436970245
1.0076859120324078
1.027966213065768
1.0485761541038576
1.0748581194539188
1.1095620771082584
1.1519270935947163
1.2011428120578953
1.2564044257161489
1.217679783423519
1.1605757316769854
1.1095620771082584
1.065513949676875
1.0293259692416377
1.0012404160287411
0.9790052352620204
0.9590317690025827
0.9401565781535977
0.9245639321255705
0.919140067991542
0.9245639321255705
0.9401565781535977
0.9590317690025827
0.9790052352620205
1.0012404160287411
1.0293259692416377
1.0655139496768753
1.1095620771082582
1.1605757316769856
1.217679783423519
1.18614334250021
1.1274431262626032
1.0748581194539188
1.0293259692416377
0.9912024872292274
0.9584590605052106
0.9330609987642304
0.9155317092537236
0.8996787404124701
0.8855150936676788
0.8798505447593232
0.8855150936676788
0.8996787404124701
0.9155317092537236
0.9330609987642305
0.9584590605052106
0.9912024872292275
1.0293259692416377
1.0748581194539188
1.1274431262626035
1.18614334250021
1.1604254037593866
1.1020309132317625
1.0485761541038576
1.001240416028741
0.9584590605052106
0.9222813168523492
0.8958500726685295
0.8796168229142347
0.8671910679122113
0.8562008220371645
0.8503863745620108
0.8562008220371645
0.8671910679122116
0.8796168229142347
0.8958500726685296
0.9222813168523492
0.9584590605052106
1.0012404160287411
1.0485761541038576
1.1020309132317627
1.1604254037593866
1.1356902005936682
1.0792350603852012
1.027966213065768
0.9790052352620205
0.9330609987642304
0.8958500726685295
0.8686149192740795
0.8520249993605034
0.8411259352725413
0.8305111301731778
0.8246211251235321
0.8305111301731778
0.8411259352725413
0.8520249993605034
0.8686149192740796
0.8958500726685296
0.9330609987642305
0.9790052352620204
1.0279662130657679
1.0792350603852012
1.1356902005936682
1.1117222125814399
1.0573331686838354
1.0076859120324078
0.9590317690025827
0.9155317092537236
0.8796168229142347
0.8520249993605034
0.830784473146082
0.8176402227789021
0.8105992029430237
0.806225774829855
0.8105992029430239
0.8176402227789021
0.830784473146082
0.8520249993605034
0.8796168229142347
0.9155317092537236
0.9590317690025828
1.0076859120324078
1.0573331686838354
1.1117222125814399
1.0897785861955738
1.036463405785218
0.9874056436970244
0.9401565781535977
0.8996787404124701
0.8671910679122116
0.8411259352725412
0.8176402227789021
0.8042778841980877
0.8009147683081311
0.8
0.8009147683081311
0.8042778841980877
0.8176402227789021
0.8411259352725412
0.8671910679122116
0.8996787404124701
0.9401565781535977
0.9874056436970242
1.0364634057852182
1.0897785861955738
1.0759262832231693
1.0218886394964444
0.9720956255455196
0.9245639321255705
0.8855150936676788
0.8562008220371645
0.8305111301731778
0.8105992029430237
0.8009147683081311
0.8
0.8
0.8
0.8009147683081311
0.8105992029430239
0.830511130173178