# vtk DataFile Version 4.1
Header:
ASCII

DATASET UNSTRUCTURED_GRID
POINTS 13824 double
-1 -1 -1
-0.9130434782608696 -1 -1
-0.8260869565217391 -1 -1
-0.7391304347826086 -1 -1
-0.6521739130434783 -1 -1
-0.5652173913043479 -1 -1
-0.4782608695652174 -1 -1
-0.3913043478260869 -1 -1
-0.30434782608695654 -1 -1
-0.21739130434782616 -1 -1
-0.13043478260869568 -1 -1
-0.04347826086956519 -1 -1
0.04347826086956519 -1 -1
0.13043478260869557 -1 -1
0.21739130434782616 -1 -1
0.30434782608695654 -1 -1
0.3913043478260869 -1 -1
0.4782608695652173 -1 -1
0.5652173913043477 -1 -1
0.6521739130434783 -1 -1
0.7391304347826086 -1 -1
0.826086956521739 -1 -1
0.9130434782608696 -1 -1
1 -1 -1
-1 -0.9130434782608696 -1
-0.9130434782608696 -0.9130434782608696 -1
-0.8260869565217391 -0.9130434782608696 -1
-0.7391304347826086 -0.9130434782608696 -1
-0.6521739130434783 -0.9130434782608696 -1
-0.5652173913043479 -0.9130434782608696 -1
-0.4782608695652174 -0.9130434782608696 -1
-0.3913043478260869 -0.9130434782608696 -1
-0.30434782608695654 -0.9130434782608696 -1
-0.21739130434782616 -0.9130434782608696 -1
-0.13043478260869568 -0.9130434782608696 -1
-0.04347826086956519 -0.9130434782608696 -1
0.04347826086956519 -0.9130434782608696 -1
0.13043478260869557 -0.9130434782608696 -1
0.21739130434782616 -0.9130434782608696 -1
0.30434782608695654 -0.9130434782608696 -1
0.3913043478260869 -0.9130434782608696 -1
0.4782608695652173 -0.9130434782608696 -1
0.5652173913043477 -0.9130434782608696 -1
0.6521739130434783 -0.9130434782608696 -1
0.7391304347826086 -0.9130434782608696 -1
0.826086956521739 -0.9130434782608696 -1
0.9130434782608696 -0.9130434782608696 -1
1 -0.9130434782608696 -1
-1 -0.8260869565217391 -1
-0.9130434782608696 -0.8260869565217391 -1
-0.8260869565217391 -0.8260869565217391 -1
-0.7391304347826086 -0.8260869565217391 -1
-0.6521739130434783 -0.8260869565217391 -1
-0.5652173913043479 -0.8260869565217391 -1
-0.4782608695652174 -0.8260869565217391 -1
-0.3913043478260869 -0.8260869565217391 -1
-0.30434782608695654 -0.8260869565217391 -1
-0.21739130434782616 -0.8260869565217391 -1
-0.13043478260869568 -0.8260869565217391 -1
-0.04347826086956519 -0.8260869565217391 -1
0.04347826086956519 -0.8260869565217391 -1
0.13043478260869557 -0.8260869565217391 -1
0.21739130434782616 -0.8260869565217391 -1
0.30434782608695654 -0.8260869565217391 -1
0.3913043478260869 -0.8260869565217391 -1
0.4782608695652173 -0.8260869565217391 -1
0.5652173913043477 -0.8260869565217391 -1
0.6521739130434783 -0.8260869565217391 -1
0.7391304347826086 -0.8260869565217391 -1
0.826086956521739 -0.8260869565217391 -1
0.9130434782608696 -0.8260869565217391 -1
1 -0.8260869565217391 -1
-1 -0.7391304347826086 -1
-0.9130434782608696 -0.7391304347826086 -1
-0.8260869565217391 -0.7391304347826086 -1
-0.7391304347826086 -0.7391304347826086 -1
-0.6521739130434783 -0.7391304347826086 -1
-0.5652173913043479 -0.7391304347826086 -1
-0.4782608695652174 -0.7391304347826086 -1
-0.3913043478260869 -0.7391304347826086 -1
-0.30434782608695654 -0.7391304347826086 -1
-0.21739130434782616 -0.7391304347826086 -1
-0.13043478260869568 -0.7391304347826086 -1
-0.04347826086956519 -0.7391304347826086 -1
0.04347826086956519 -0.7391304347826086 -1
0.13043478260869557 -0.7391304347826086 -1
0.21739130434782616 -0.7391304347826086 -1
0.30434782608695654 -0.7391304347826086 -1
0.3913043478260869 -0.7391304347826086 -1
0.4782608695652173 -0.7391304347826086 -1
0.5652173913043477 -0.7391304347826086 -1
0.6521739130434783 -0.7391304347826086 -1
0.7391304347826086 -0.7391304347826086 -1
0.826086956521739 -0.7391304347826086 -1
0.9130434782608696 -0.7391304347826086 -1
1 -0.7391304347826086 -1
-1 -0.6521739130434783 -1
-0.9130434782608696 -0.6521739130434783 -1
-0.8260869565217391 -0.6521739130434783 -1
-0.7391304347826086 -0.6521739130434783 -1
-0.6521739130434783 -0.6521739130434783 -1
-0.5652173913043479 -0.6521739130434783 -1
-0.4782608695652174 -0.6521739130434783 -1
-0.3913043478260869 -0.6521739130434783 -1
-0.30434782608695654 -0.6521739130434783 -1
-0.21739130434782616 -0.6521739130434783 -1
-0.13043478260869568 -0.6521739130434783 -1
-0.04347826086956519 -0.6521739130434783 -1
0.04347826086956519 -0.6521739130434783 -1
0.13043478260869557 -0.6521739130434783 -1
0.21739130434782616 -0.6521739130434783 -1
0.30434782608695654 -0.6521739130434783 -1
0.3913043478260869 -0.6521739130434783 -1
0.4782608695652173 -0.6521739130434783 -1
0.5652173913043477 -0.6521739130434783 -1
0.6521739130434783 -0.6521739130434783 -1
0.7391304347826086 -0.6521739130434783 -1
0.826086956521739 -0.6521739130434783 -1
0.9130434782608696 -0.6521739130434783 -1
1 -0.6521739130434783 -1
-1 -0.5652173913043479 -1
-0.9130434782608696 -0.5652173913043479 -1
-0.8260869565217391 -0.5652173913043479 -1
-0.7391304347826086 -0.5652173913043479 -1
-0.6521739130434783 -0.5652173913043479 -1
-0.5652173913043479 -0.5652173913043479 -1
-0.4782608695652174 -0.5652173913043479 -1
-0.3913043478260869 -0.5652173913043479 -1
-0.30434782608695654 -0.5652173913043479 -1
-0.21739130434782616 -0.5652173913043479 -1
-0.13043478260869568 -0.5652173913043479 -1
-0.04347826086956519 -0.5652173913043479 -1
0.04347826086956519 -0.5652173913043479 -1
0.13043478260869557 -0.5652173913043479 -1
0.21739130434782616 -0.5652173913043479 -1
0.30434782608695654 -0.5652173913043479 -1
0.3913043478260869 -0.5652173913043479 -1
0.4782608695652173 -0.5652173913043479 -1
0.5652173913043477 -0.5652173913043479 -1
0.6521739130434783 -0.5652173913043479 -1
0.7391304347826086 -0.5652173913043479 -1
0.826086956521739 -0.5652173913043479 -1
0.9130434782608696 -0.5652173913043479 -1
1 -0.5652173913043479 -1
-1 -0.4782608695652174 -1
-0.9130434782608696 -0.4782608695652174 -1
-0.8260869565217391 -0.4782608695652174 -1
-0.7391304347826086 -0.4782608695652174 -1
-0.6521739130434783 -0.4782608695652174 -1
-0.5652173913043479 -0.4782608695652174 -1
-0.4782608695652174 -0.4782608695652174 -1
-0.3913043478260869 -0.4782608695652174 -1
-0.30434782608695654 -0.4782608695652174 -1
-0.21739130434782616 -0.4782608695652174 -1
-0.13043478260869568 -0.4782608695652174 -1
-0.04347826086956519 -0.4782608695652174 -1
0.04347826086956519 -0.4782608695652174 -1
0.13043478260869557 -0.4782608695652174 -1
0.21739130434782616 -0.4782608695652174 -1
0.30434782608695654 -0.4782608695652174 -1
0.3913043478260869 -0.4782608695652174 -1
0.4782608695652173 -0.4782608695652174 -1
0.5652173913043477 -0.4782608695652174 -1
0.6521739130434783 -0.4782608695652174 -1
0.7391304347826086 -0.4782608695652174 -1
0.826086956521739 -0.4782608695652174 -1
0.9130434782608696 -0.4782608695652174 -1
1 -0.4782608695652174 -1
-1 -0.3913043478260869 -1
-0.9130434782608696 -0.3913043478260869 -1
-0.8260869565217391 -0.3913043478260869 -1
-0.7391304347826086 -0.3913043478260869 -1
-0.6521739130434783 -0.3913043478260869 -1
-0.5652173913043479 -0.3913043478260869 -1
-0.4782608695652174 -0.3913043478260869 -1
-0.3913043478260869 -0.3913043478260869 -1
-0.30434782608695654 -0.3913043478260869 -1
-0.21739130434782616 -0.3913043478260869 -1
-0.13043478260869568 -0.3913043478260869 -1
-0.04347826086956519 -0.3913043478260869 -1
0.04347826086956519 -0.3913043478260869 -1
0.13043478260869557 -0.3913043478260869 -1
0.21739130434782616 -0.3913043478260869 -1
0.30434782608695654 -0.3913043478260869 -1
0.3913043478260869 -0.3913043478260869 -1
0.4782608695652173 -0.3913043478260869 -1
0.5652173913043477 -0.3913043478260869 -1
0.6521739130434783 -0.3913043478260869 -1
0.7391304347826086 -0.3913043478260869 -1
0.826086956521739 -0.3913043478260869 -1
0.9130434782608696 -0.3913043478260869 -1
1 -0.3913043478260869 -1
-1 -0.30434782608695654 -1
-0.9130434782608696 -0.30434782608695654 -1
-0.8260869565217391 -0.30434782608695654 -1
-0.7391304347826086 -0.30434782608695654 -1
-0.6521739130434783 -0.30434782608695654 -1
-0.5652173913043479 -0.30434782608695654 -1
-0.4782608695652174 -0.30434782608695654 -1
-0.3913043478260869 -0.30434782608695654 -1
-0.30434782608695654 -0.30434782608695654 -1
-0.21739130434782616 -0.30434782608695654 -1
-0.13043478260869568 -0.30434782608695654 -1
-0.04347826086956519 -0.30434782608695654 -1
0.04347826086956519 -0.30434782608695654 -1
0.13043478260869557 -0.30434782608695654 -1
0.21739130434782616 -0.30434782608695654 -1
0.30434782608695654 -0.30434782608695654 -1
0.3913043478260869 -0.30434782608695654 -1
0.4782608695652173 -0.30434782608695654 -1
0.5652173913043477 -0.30434782608695654 -1
0.6521739130434783 -0.30434782608695654 -1
0.7391304347826086 -0.30434782608695654 -1
0.826086956521739 -0.30434782608695654 -1
0.9130434782608696 -0.30434782608695654 -1
1 -0.30434782608695654 -1
-1 -0.21739130434782616 -1
-0.9130434782608696 -0.21739130434782616 -1
-0.8260869565217391 -0.21739130434782616 -1
-0.7391304347826086 -0.21739130434782616 -1
-0.6521739130434783 -0.21739130434782616 -1
-0.5652173913043479 -0.21739130434782616 -1
-0.4782608695652174 -0.21739130434782616 -1
-0.3913043478260869 -0.21739130434782616 -1
-0.30434782608695654 -0.21739130434782616 -1
-0.21739130434782616 -0.21739130434782616 -1
-0.13043478260869568 -0.21739130434782616 -1
-0.04347826086956519 -0.21739130434782616 -1
0.04347826086956519 -0.21739130434782616 -1
0.13043478260869557 -0.21739130434782616 -1
0.21739130434782616 -0.21739130434782616 -1
0.30434782608695654 -0.21739130434782616 -1
0.3913043478260869 -0.21739130434782616 -1
0.4782608695652173 -0.21739130434782616 -1
0.5652173913043477 -0.21739130434782616 -1
0.6521739130434783 -0.21739130434782616 -1
0.7391304347826086 -0.21739130434782616 -1
0.826086956521739 -0.21739130434782616 -1
0.9130434782608696 -0.21739130434782616 -1
1 -0.21739130434782616 -1
-1 -0.13043478260869568 -1
-0.9130434782608696 -0.13043478260869568 -1
-0.8260869565217391 -0.13043478260869568 -1
-0.7391304347826086 -0.13043478260869568 -1
-0.6521739130434783 -0.13043478260869568 -1
-0.5652173913043479 -0.13043478260869568 -1
-0.4782608695652174 -0.13043478260869568 -1
-0.3913043478260869 -0.13043478260869568 -1
[...]
POINT_DATA 13824
SCALARS phi1 double 1
LOOKUP_TABLE default
1.5170729502452875
1.473645897021649
1.434181647002037
1.399015595600044
1.368479137660766
1.3428881327345534
1.321413315061821
1.3006955391353447
1.2805074444752353
1.2627250912294024
1.2506913725329807
1.244630883427892
1.244630883427892
1.2506913725329807
1.2627250912294024
1.2805074444752353
1.3006955391353447
1.321413315061821
1.3428881327345534
1.368479137660766
1.3990155956000443
1.434181647002037
1.473645897021649
1.5170729502452878
1.473645897021649
1.4288996197254515
1.388163855616575
1.3518012169601512
1.3201731112454733
1.2936268513300484
1.2723063677346471
1.2529109995642198
1.2341082390965121
1.2164309959603465
1.2039346415986247
1.1976375695072667
1.1976375695072667
1.2039346415986247
1.2164309959603465
1.2341082390965121
1.25291099956422
1.2723063677346471
1.2936268513300484
1.3201731112454733
1.3518012169601512
1.388163855616575
1.4288996197254515
1.473645897021649
1.434181647002037
1.388163855616575
1.3461959949535618
1.3086677565232823
1.2759709285263077
1.24848516101347
1.2265608250075934
1.2085823265096078
1.191324958218884
1.1747582530852012
1.161813757234748
1.1552871215217395
1.1552871215217395
1.161813757234748
1.1747582530852012
1.191324958218884
1.2085823265096078
1.2265608250075934
1.24848516101347
1.2759709285263077
1.3086677565232825
1.3461959949535618
1.388163855616575
1.434181647002037
1.399015595600044
1.3518012169601512
1.3086677565232823
1.2700310772175427
1.2363128449461966
1.2079250131549975
1.1852506475754312
1.1681030292288759
1.1525603438278162
1.1377788444866213
1.124849618884485
1.1181072362517988
1.1181072362517988
1.124849618884485
1.1377788444866213
1.1525603438278162
1.1681030292288759
1.1852506475754312
1.2079250131549975
1.2363128449461966
1.2700310772175427
1.3086677565232823
1.3518012169601514
1.3990155956000443
1.368479137660766
1.3201731112454733
1.2759709285263077
1.2363128449461966
1.201648852227457
1.1724220020479432
1.1490472623258738
1.1318861752207736
1.1182324070038832
1.1054120553067455
1.0935652687677844
1.0866287883675918
1.0866287883675918
1.0935652687677844
1.1054120553067455
1.1182324070038832
1.1318861752207736
1.1490472623258738
1.1724220020479432
1.201648852227457
1.2363128449461966
1.2759709285263077
1.3201731112454733
1.368479137660766
1.3428881327345534
1.2936268513300484
1.24848516101347
1.2079250131549975
1.1724220020479432
1.142447695832352
1.1184466897823642
1.1008097616770764
1.088760885503717
1.078071938644909
1.0683129866805634
1.0613419681053586
1.0613419681053586
1.0683129866805634
1.078071938644909
1.088760885503717
1.1008097616770764
1.1184466897823642
1.142447695832352
1.1724220020479434
1.2079250131549975
1.24848516101347
1.2936268513300484
1.3428881327345534
1.321413315061821
1.2723063677346471
1.2265608250075934
1.1852506475754312
1.1490472623258738
1.1184466897823642
1.0939192191645626
1.0758802868237805
1.0644734322407134
1.0552042542782054
1.0459350763156978
1.0388552655781413
1.0388552655781413
1.0459350763156978
1.0552042542782056
1.0644734322407134
1.0758802868237805
1.0939192191645626
1.1184466897823642
1.1490472623258738
1.1852506475754312
1.2265608250075934
1.2723063677346471
1.321413315061821
1.3006955391353447
1.25291099956422
1.2085823265096078
1.1681030292288759
1.1318861752207736
1.1008097616770764
1.0758802868237805
1.057389349184214
1.0432887007140952
1.03323075822457
1.0253650948642585
1.0190621731108491
1.0190621731108491
1.0253650948642585
1.03323075822457
1.0432887007140952
1.057389349184214
1.0758802868237805
1.1008097616770764
1.1318861752207736
1.1681030292288759
1.2085823265096078
1.25291099956422
1.3006955391353447
1.2805074444752353
1.2341082390965121
1.191324958218884
1.1525603438278162
1.1182324070038832
1.088760885503717
1.0644734322407134
1.0432887007140952
1.026201768248007
1.0160297572382329
1.0106480877890416
1.0063691032863067
1.0063691032863067
1.0106480877890416
1.0160297572382329
1.026201768248007
1.0432887007140952
1.0644734322407134
1.088760885503717
1.1182324070038832
1.1525603438278162
1.191324958218884
1.2341082390965121
1.2805074444752353
1.2627250912294024
1.2164309959603465
1.1747582530852012
1.1377788444866213
1.1054120553067455
1.078071938644909
1.0552042542782054
1.03323075822457
1.0160297572382329
1.0057548737300899
1.00217449416618
1.0005346943518978
1.0005346943518978
1.00217449416618
1.0057548737300899
1.0160297572382329
1.03323075822457
1.0552042542782054
1.078071938644909
1.1054120553067457
1.1377788444866213
1.1747582530852012
1.2164309959603465
1.2627250912294024
1.2506913725329807
1.2039346415986247
1.161813757234748
1.124849618884485
1.0935652687677844
1.0683129866805634
1.0459350763156978
1.0253650948642585
1.0106480877890416
1.00217449416618
1
1
1
1
1.00217449416618
1.0106480877890416
1.0253650948642585
1.0459350763156974
1.0683129866805634
1.0935652687677844
1.124849618884485
1.161813757234748
1.2039346415986247
1.2506913725329807
1.244630883427892
1.1976375695072667
1.1552871215217395
1.1181072362517988
1.0866287883675918
1.0613419681053586
1.0388552655781413
1.0190621731108491
1.0063691032863067
1.0005346943518978
1
1
1
1
1.0005346943518978
1.0063691032863067
1.0190621731108491
1.0388552655781413
1.0613419681053586
1.0866287883675918
1.1181072362517988
1.1552871215217395
1.1976375695072667
1.244630883427892
1.244630883427892
1.1976375695072667
1.1552871215217395
1.1181072362517988
1.0866287883675918
1.0613419681053586
1.0388552655781413
1.0190621731108491
1.0063691032863067
1.0005346943518978
1
1
1
1
1.0005346943518978
1.0063691032863067
1.0190621731108491
1.0388552655781413
1.0613419681053586
1.0866287883675918
1.1181072362517988
1.1552871215217395
1.1976375695072667
1.244630883427892
1.2506913725329807
1.2039346415986247
1.161813757234748
1.124849618884485
1.0935652687677844
1.0683129866805634
1.0459350763156976
1.0253650948642585
1.0106480877890416
1.00217449416618
1
1
1
1
1.00217449416618
1.0106480877890416
1.0253650948642585
1.0459350763156974
1.0683129866805632
1.0935652687677844
1.124849618884485
1.161813757234748
1.2039346415986247
1.2506913725329807
1.2627250912294024
1.2164309959603465
1.1747582530852012
1.1377788444866213
1.1054120553067455
1.078071938644909
1.0552042542782054
1.03323075822457
1.0160297572382329
1.0057548737300899
1.00217449416618
1.0005346943518978
1.0005346943518978
1.00217449416618
1.0057548737300899
1.0160297572382329
1.03323075822457
1.0552042542782056
1.078071938644909
1.1054120553067455
1.1377788444866213
1.1747582530852012
1.2164309959603465
1.2627250912294024
1.2805074444752353
1.2341082390965121
1.191324958218884
1.1525603438278162
1.1182324070038832
1.088760885503717
1.0644734322407134
1.0432887007140952
1.026201768248007
1.0160297572382329
1.0106480877890416
1.0063691032863067
1.0063691032863067
1.0106480877890416
1.0160297572382329
1.0262017682480067
1.0432887007140952
1.0644734322407134
1.088760885503717
1.1182324070038832
1.1525603438278162
1.191324958218884
1.2341082390965121
1.2805074444752353
1.3006955391353447
1.25291099956422
1.2085823265096078
1.1681030292288759
1.1318861752207736
1.1008097616770764
1.0758802868237805
1.057389349184214
1.0432887007140952
1.03323075822457
1.0253650948642585
1.0190621731108491
1.0190621731108491
1.0253650948642585
1.03323075822457
1.0432887007140952
1.057389349184214
1.0758802868237805
1.1008097616770764
1.1318861752207736
1.1681030292288759
1.2085823265096078
1.25291099956422
1.3006955391353447
1.321413315061821
1.2723063677346471
1.2265608250075934
1.1852506475754312
1.1490472623258738
1.1184466897823642
1.0939192191645626
1.0758802868237805
1.0644734322407134
1.0552042542782054
1.0459350763156978
1.0388552655781413
1.0388552655781413
1.0459350763156976
1.0552042542782054
1.0644734322407134
1.0758802868237805
1.0939192191645624
1.1184466897823642
1.1490472623258738
1.1852506475754312
1.2265608250075932
1.2723063677346471
1.321413315061821
1.3428881327345534
1.2936268513300484
1.24848516101347
1.2079250131549975
1.1724220020479432
1.142447695832352
1.1184466897823642
1.1008097616770764
1.088760885503717
1.078071938644909
1.0683129866805634
1.0613419681053586
1.0613419681053586
1.0683129866805632
1.078071938644909
1.088760885503717
1.1008097616770764
1.1184466897823642
1.1424476958323517
1.1724220020479432
1.2079250131549975
1.24848516101347
1.2936268513300484
1.3428881327345534
1.368479137660766
1.3201731112454733
1.2759709285263077
1.2363128449461966
1.201648852227457
1.1724220020479432
1.1490472623258738
1.1318861752207736
1.1182324070038832
1.1054120553067455
1.0935652687677844
1.0866287883675918
1.0866287883675918
1.0935652687677844
1.1054120553067455
1.1182324070038832
1.1318861752207736
1.1490472623258738
1.1724220020479432
1.201648852227457
1.2363128449461966
1.2759709285263077
1.3201731112454733
1.368479137660766
1.399015595600044
1.3518012169601512
1.3086677565232823
1.2700310772175427
1.2363128449461966
1.2079250131549975
1.1852506475754312
1.1681030292288759
1.1525603438278162
1.1377788444866213
1.124849618884485
1.1181072362517988
1.1181072362517988
1.124849618884485
1.1377788444866213
1.1525603438278162
1.1681030292288759
1.1852506475754312
1.2079250131549975
1.2363128449461966
1.2700310772175427
1.3086677565232823
1.3518012169601512
1.399015595600044
1.434181647002037
1.388163855616575
1.3461959949535618
1.3086677565232823
1.2759709285263077
1.24848516101347
1.2265608250075934
1.2085823265096078
1.191324958218884
1.1747582530852012
1.161813757234748
1.1552871215217395
1.1552871215217395
1.161813757234748
1.1747582530852012
1.191324958218884
1.2085823265096078
1.2265608250075932
1.24848516101347
1.2759709285263077
1.3086677565232823
1.3461959949535618
1.388163855616575
1.434181647002037
1.473645897021649
1.4288996197254515
1.388163855616575
1.3518012169601512
1.3201731112454733
1.2936268513300484
1.2723063677346471
1.25291099956422
1.2341082390965121
1.2164309959603465
1.2039346415986247
1.1976375695072667
1.1976375695072667
1.2039346415986247
1.2164309959603465
1.2341082390965121
1.25291099956422
1.2723063677346471
1.2936268513300484
1.3201731112454733
1.3518012169601512
1.388163855616575
1.4288996197254515
1.473645897021649
1.5170729502452875
1.473645897021649
1.434181647002037
1.399015595600044
1.368479137660766
1.3428881327345534
1.321413315061821
1.3006955391353447
1.2805074444752353
1.2627250912294024
1.2506913725329807
1.244630883427892
1.244630883427892
1.2506913725329807
1.2627250912294024
1.2805074444752353
1.3006955391353447
1.321413315061821
1.3428881327345534
1.368479137660766
1.399015595600044
1.434181647002037
1.473645897021649
1.5170729502452875
1.4596772001974465
1.41448910289866
1.3733259587613535
1.3365596990566722
1.3045621267778198
1.2776915627214618
1.2551017256115087
1.233270480444943
1.2119597797644994
1.1931562548260886
1.1804135299710632
1.173990301660457
1.173990301660457
1.1804135299710632
1.1931562548260886
1.2119597797644994
1.233270480444943
1.2551017256115087
1.2776915627214616
1.3045621267778198
1.3365596990566722
1.3733259587613535
1.41448910289866
1.4596772001974467
1.41448910289866
1.3678089470616337
1.325196620298509
1.287056223552515
1.2537959307901219
1.2258130456527252
1.2032916046364015
1.1827650507346452
1.1628285936526541
1.1440505060282065
1.130754532890107
1.1240475703036719
1.1240475703036719
1.130754532890107
1.1440505060282067
1.1628285936526541
1.1827650507346452
1.2032916046364015
1.2258130456527252
1.2537959307901219
1.287056223552515
1.325196620298509
1.367808947061634
1.41448910289866
1.3733259587613535
1.325196620298509
1.2811677677959767
1.2416756780149945
1.2071656898929009
1.1780757147489058
1.15481541808794
1.1357017356514394
1.1173192688240643
1.0996381884975208
1.0857985075096748
1.07881209001582
1.07881209001582
1.0857985075096748
1.0996381884975208
1.117319268824064
1.1357017356514392
1.15481541808794
1.1780757147489058
1.2071656898929009
1.2416756780149947
1.2811677677959767
1.325196620298509
1.3733259587613535
1.3365596990566722
1.287056223552515
1.2416756780149945
1.2008855605380002
1.165168074995738
1.1350022157757298
1.1108403530608233
1.0925254593390452
1.0758915087381298
1.0600414573834491
1.0461519285050747
1.0388989287553199
1.0388989287553199
1.0461519285050747
1.0600414573834491
1.0758915087381298
1.0925254593390452
1.1108403530608233
1.1350022157757296
1.165168074995738
1.2008855605380004
1.2416756780149945
1.287056223552515
1.3365596990566722
1.3045621267778198
1.2537959307901219
1.2071656898929009
1.165168074995738
1.128320502547871
1.097141988667111
1.0721272328734595
1.0537141481759782
1.0390336416517096
1.0252233924505425
1.012438733684894
1.0049424441825192
1.0049424441825192
1.012438733684894
1.0252233924505425
1.0390336416517096
1.0537141481759782
1.0721272328734595
1.097141988667111
1.128320502547871
1.165168074995738
1.2071656898929009
1.2537959307901219
1.3045621267778198
1.2776915627214618
1.2258130456527252
1.1780757147489058
1.1350022157757298
1.097141988667111
1.065051139674976
1.039264254314293
1.020259439463246
1.0072474662232485
0.9956838340075165
0.9851090446852374
0.9775635638750335
0.9775635638750335
0.9851090446852374
0.9956838340075165
1.0072474662232485
1.0202594394632463
1.039264254314293
1.065051139674976
1.097141988667111
1.1350022157757298
1.1780757147489058
1.2258130456527252
1.2776915627214618
1.2551017256115087
1.2032916046364015
1.15481541808794
1.1108403530608233
1.0721272328734595
1.039264254314293
1.0128210357550447
0.9933104167310113
0.9810260892362802
0.9716892604612755
0.9624200824987675
0.9549417793840437
0.9549417793840437
0.9624200824987675
0.9716892604612755
0.9810260892362802
0.9933104167310113
1.0128210357550447
1.039264254314293
1.0721272328734595
1.1108403530608233
1.15481541808794
1.2032916046364015
1.2551017256115087
1.233270480444943
1.1827650507346452
1.1357017356514392
1.0925254593390452
1.0537141481759782
1.020259439463246
0.9933104167310113
0.9734088131431464
0.9594539230699027
0.9493230182272137
0.9407560634727247
0.9338822762319208
0.9338822762319208
0.9407560634727247
0.9493230182272137
0.9594539230699027
0.9734088131431464
0.9933104167310113
1.020259439463246
1.0537141481759782
1.0925254593390452
1.1357017356514392
1.1827650507346452
1.233270480444943
1.2119597797644994
1.1628285936526541
1.117319268824064
1.0758915087381298
1.0390336416517096
1.0072474662232485
0.9810260892362802
0.9594539230699027
0.9416679151112897
0.9305723296919427
0.9246934359810031
0.9200147636011021
0.9200147636011021
0.9246934359810031
0.9305723296919427
0.9416679151112897
0.9594539230699027
0.9810260892362802
1.0072474662232485
1.0390336416517096
1.0758915087381298
1.117319268824064
1.1628285936526541
1.2119597797644994
1.1931562548260886
1.1440505060282067
1.0996381884975208
1.0600414573834491
1.0252233924505425
0.9956838340075165
0.9716892604612751
0.9493230182272137
0.9305723296919427
0.9193428409611597
0.9154245517528715
0.9136290646627616
0.9136290646627616
0.9154245517528715
0.9193428409611597
0.9305723296919427
0.9493230182272137
0.9716892604612755
0.9956838340075165
1.0252233924505425
1.0600414573834491
1.0996381884975206
1.1440505060282065
1.1931562548260886
1.1804135299710632
1.130754532890107
1.0857985075096748
1.0461519285050747
1.012438733684894
0.9851090446852374
0.9624200824987675
0.9407560634727247
0.9246934359810031
0.9154245517528715
0.9130434782608696
0.9130434782608696
0.9130434782608696
0.9130434782608696
0.9154245517528715
0.9246934359810031
0.9407560634727247
0.9624200824987672
0.9851090446852373
1.012438733684894
1.0461519285050747
1.0857985075096748
1.130754532890107
1.1804135299710632
1.173990301660457
1.1240475703036719
1.07881209001582
1.0388989287553199
1.0049424441825192
0.9775635638750335
0.9549417793840437
0.9338822762319208
0.9200147636011021
0.9136290646627616
0.9130434782608696
0.9130434782608696
0.9130434782608696
0.9130434782608696
0.9136290646627616
0.9200147636011021
0.9338822762319208
0.9549417793840437
0.9775635638750334
1.0049424441825192
1.0388989287553199
1.07881209001582
1.1240475703036719
1.173990301660457
1.173990301660457
1.1240475703036719
1.07881209001582
1.0388989287553199
1.0049424441825192
0.9775635638750335
0.9549417793840437
0.9338822762319208
0.9200147636011021
0.9136290646627616
0.9130434782608696
0.9130434782608696
0.9130434782608696
0.9130434782608696
0.9136290646627616
0.9200147636011021
0.9338822762319208
0.9549417793840437
0.9775635638750334
1.0049424441825192
1.0388989287553199
1.07881209001582
1.1240475703036719
1.173990301660457
1.1804135299710632
1.130754532890107
1.0857985075096748
1.0461519285050747
1.012438733684894
0.9851090446852374
0.9624200824987674
0.9407560634727247
0.9246934359810031
0.9154245517528715
0.9130434782608696
0.9130434782608696
0.9130434782608696
0.9130434782608696
0.9154245517528715
0.9246934359810031
0.9407560634727247
0.9624200824987671
0.9851090446852373
1.012438733684894
1.0461519285050747
1.0857985075096748
1.130754532890107
1.1804135299710632
1.1931562548260886
1.1440505060282065
1.0996381884975208
1.0600414573834491
1.0252233924505425
0.9956838340075165
0.9716892604612755
0.9493230182272137
0.9305723296919427
0.9193428409611597
0.9154245517528715
0.9136290646627616
0.9136290646627616
0.9154245517528715
0.9193428409611597
0.9305723296919427
0.9493230182272137
0.9716892604612755
0.9956838340075163
1.0252233924505425
1.0600414573834491
1.0996381884975208
1.1440505060282067
1.1931562548260886
1.2119597797644994
1.1628285936526541
1.1173192688240643
1.0758915087381298
1.0390336416517096
1.0072474662232485
0.9810260892362802
0.9594539230699027
0.9416679151112897
0.9305723296919427
0.9246934359810031
0.9200147636011021
0.9200147636011021
0.9246934359810031
0.9305723296919427
0.9416679151112897
0.9594539230699027
0.9810260892362802
1.0072474662232482
1.0390336416517096
1.0758915087381298
1.117319268824064
1.1628285936526541
1.2119597797644994
1.233270480444943
1.1827650507346452
1.1357017356514394
1.0925254593390452
1.0537141481759782
1.020259439463246
0.9933104167310113
0.9734088131431464
0.9594539230699027
0.9493230182272137
0.9407560634727247
0.9338822762319208
0.9338822762319208
0.9407560634727247
0.9493230182272137
0.9594539230699027
0.9734088131431464
0.9933104167310112
1.020259439463246
1.0537141481759782
1.0925254593390452
1.1357017356514392
1.1827650507346452
1.233270480444943
1.2551017256115087
1.2032916046364015
1.15481541808794
1.110840353060823
1.0721272328734595
1.039264254314293
1.0128210357550447
0.9933104167310112
0.9810260892362802
0.9716892604612755
0.9624200824987675
0.9549417793840437
0.9549417793840437
0.9624200824987674
0.9716892604612755
0.9810260892362802
0.9933104167310112
1.0128210357550447
1.039264254314293
1.0721272328734595
1.110840353060823
1.1548154180879397
1.2032916046364015
1.2551017256115087
1.2776915627214616
1.2258130456527252
1.1780757147489058
1.1350022157757296
1.097141988667111
1.065051139674976
1.039264254314293
1.020259439463246
1.0072474662232482
0.9956838340075163
0.9851090446852373
0.9775635638750334
0.9775635638750334
0.9851090446852373
0.9956838340075163
1.0072474662232482
1.020259439463246
1.039264254314293
1.065051139674976
1.097141988667111
1.1350022157757296
1.1780757147489058
1.2258130456527252
1.2776915627214616
1.3045621267778198
1.2537959307901219
1.2071656898929009
1.165168074995738
1.128320502547871
1.097141988667111
1.0721272328734595
1.0537141481759782
1.0390336416517096
1.0252233924505425
1.012438733684894
1.0049424441825192
1.0049424441825192
1.012438733684894
1.0252233924505425
1.0390336416517096
1.0537141481759782
1.0721272328734595
1.097141988667111
1.128320502547871
1.165168074995738
1.2071656898929006
1.2537959307901219
1.3045621267778198
1.3365596990566722
1.287056223552515
1.2416756780149945
1.2008855605380002
1.165168074995738
1.1350022157757298
1.1108403530608233
1.0925254593390452
1.0758915087381298
1.0600414573834491
1.0461519285050747
1.0388989287553199
1.0388989287553199
1.0461519285050747
1.0600414573834491
1.0758915087381298
1.0925254593390452
1.110840353060823
1.1350022157757296
1.165168074995738
1.2008855605380002
1.2416756780149945