# vtk DataFile Version 4.1
Header:
ASCII

DATASET UNSTRUCTURED_GRID
POINTS 13824 double
-1 -1 -1
-0.9130434782608696 -1 -1
-0.8260869565217391 -1 -1
-0.7391304347826086 -1 -1
-0.6521739130434783 -1 -1
-0.5652173913043479 -1 -1
-0.4782608695652174 -1 -1
-0.3913043478260869 -1 -1
-0.30434782608695654 -1 -1
-0.21739130434782616 -1 -1
-0.13043478260869568 -1 -1
-0.04347826086956519 -1 -1
0.04347826086956519 -1 -1
0.13043478260869557 -1 -1
0.21739130434782616 -1 -1
0.30434782608695654 -1 -1
0.3913043478260869 -1 -1
0.4782608695652173 -1 -1
0.5652173913043477 -1 -1
0.6521739130434783 -1 -1
0.7391304347826086 -1 -1
0.826086956521739 -1 -1
0.9130434782608696 -1 -1
1 -1 -1
-1 -0.9130434782608696 -1
-0.9130434782608696 -0.9130434782608696 -1
-0.8260869565217391 -0.9130434782608696 -1
-0.7391304347826086 -0.9130434782608696 -1
-0.6521739130434783 -0.9130434782608696 -1
-0.5652173913043479 -0.9130434782608696 -1
-0.4782608695652174 -0.9130434782608696 -1
-0.3913043478260869 -0.9130434782608696 -1
-0.30434782608695654 -0.9130434782608696 -1
-0.21739130434782616 -0.9130434782608696 -1
-0.13043478260869568 -0.9130434782608696 -1
-0.04347826086956519 -0.9130434782608696 -1
0.04347826086956519 -0.9130434782608696 -1
0.13043478260869557 -0.9130434782608696 -1
0.21739130434782616 -0.9130434782608696 -1
0.30434782608695654 -0.9130434782608696 -1
0.3913043478260869 -0.9130434782608696 -1
0.4782608695652173 -0.9130434782608696 -1
0.5652173913043477 -0.9130434782608696 -1
0.6521739130434783 -0.9130434782608696 -1
0.7391304347826086 -0.9130434782608696 -1
0.826086956521739 -0.9130434782608696 -1
0.9130434782608696 -0.9130434782608696 -1
1 -0.9130434782608696 -1
-1 -0.8260869565217391 -1
-0.9130434782608696 -0.8260869565217391 -1
-0.8260869565217391 -0.8260869565217391 -1
-0.7391304347826086 -0.8260869565217391 -1
-0.6521739130434783 -0.8260869565217391 -1
-0.5652173913043479 -0.8260869565217391 -1
-0.4782608695652174 -0.8260869565217391 -1
-0.3913043478260869 -0.8260869565217391 -1
-0.30434782608695654 -0.8260869565217391 -1
-0.21739130434782616 -0.8260869565217391 -1
-0.13043478260869568 -0.8260869565217391 -1
-0.04347826086956519 -0.8260869565217391 -1
0.04347826086956519 -0.8260869565217391 -1
0.13043478260869557 -0.8260869565217391 -1
0.21739130434782616 -0.8260869565217391 -1
0.30434782608695654 -0.8260869565217391 -1
0.3913043478260869 -0.8260869565217391 -1
0.4782608695652173 -0.8260869565217391 -1
0.5652173913043477 -0.8260869565217391 -1
0.6521739130434783 -0.8260869565217391 -1
0.7391304347826086 -0.8260869565217391 -1
0.826086956521739 -0.8260869565217391 -1
0.9130434782608696 -0.8260869565217391 -1
1 -0.8260869565217391 -1
-1 -0.7391304347826086 -1
-0.9130434782608696 -0.7391304347826086 -1
-0.8260869565217391 -0.7391304347826086 -1
-0.7391304347826086 -0.7391304347826086 -1
-0.6521739130434783 -0.7391304347826086 -1
-0.5652173913043479 -0.7391304347826086 -1
-0.4782608695652174 -0.7391304347826086 -1
-0.3913043478260869 -0.7391304347826086 -1
-0.30434782608695654 -0.7391304347826086 -1
-0.21739130434782616 -0.7391304347826086 -1
-0.13043478260869568 -0.7391304347826086 -1
-0.04347826086956519 -0.7391304347826086 -1
0.04347826086956519 -0.7391304347826086 -1
0.13043478260869557 -0.7391304347826086 -1
0.21739130434782616 -0.7391304347826086 -1
0.30434782608695654 -0.7391304347826086 -1
0.3913043478260869 -0.7391304347826086 -1
0.4782608695652173 -0.7391304347826086 -1
0.5652173913043477 -0.7391304347826086 -1
0.6521739130434783 -0.7391304347826086 -1
0.7391304347826086 -0.7391304347826086 -1
0.826086956521739 -0.7391304347826086 -1
0.9130434782608696 -0.7391304347826086 -1
1 -0.7391304347826086 -1
-1 -0.6521739130434783 -1
-0.9130434782608696 -0.6521739130434783 -1
-0.8260869565217391 -0.6521739130434783 -1
-0.7391304347826086 -0.6521739130434783 -1
-0.6521739130434783 -0.6521739130434783 -1
-0.5652173913043479 -0.6521739130434783 -1
-0.4782608695652174 -0.6521739130434783 -1
-0.3913043478260869 -0.6521739130434783 -1
-0.30434782608695654 -0.6521739130434783 -1
-0.21739130434782616 -0.6521739130434783 -1
-0.13043478260869568 -0.6521739130434783 -1
-0.04347826086956519 -0.6521739130434783 -1
0.04347826086956519 -0.6521739130434783 -1
0.13043478260869557 -0.6521739130434783 -1
0.21739130434782616 -0.6521739130434783 -1
0.30434782608695654 -0.6521739130434783 -1
0.3913043478260869 -0.6521739130434783 -1
0.4782608695652173 -0.6521739130434783 -1
0.5652173913043477 -0.6521739130434783 -1
0.6521739130434783 -0.6521739130434783 -1
0.7391304347826086 -0.6521739130434783 -1
0.826086956521739 -0.6521739130434783 -1
0.9130434782608696 -0.6521739130434783 -1
1 -0.6521739130434783 -1
-1 -0.5652173913043479 -1
-0.9130434782608696 -0.5652173913043479 -1
-0.8260869565217391 -0.5652173913043479 -1
-0.7391304347826086 -0.5652173913043479 -1
-0.6521739130434783 -0.5652173913043479 -1
-0.5652173913043479 -0.5652173913043479 -1
-0.4782608695652174 -0.5652173913043479 -1
-0.3913043478260869 -0.5652173913043479 -1
-0.30434782608695654 -0.5652173913043479 -1
-0.21739130434782616 -0.5652173913043479 -1
-0.13043478260869568 -0.5652173913043479 -1
-0.04347826086956519 -0.5652173913043479 -1
0.04347826086956519 -0.5652173913043479 -1
0.13043478260869557 -0.5652173913043479 -1
0.21739130434782616 -0.5652173913043479 -1
0.30434782608695654 -0.5652173913043479 -1
0.3913043478260869 -0.5652173913043479 -1
0.4782608695652173 -0.5652173913043479 -1
0.5652173913043477 -0.5652173913043479 -1
0.6521739130434783 -0.5652173913043479 -1
0.7391304347826086 -0.5652173913043479 -1
0.826086956521739 -0.5652173913043479 -1
0.9130434782608696 -0.5652173913043479 -1
1 -0.5652173913043479 -1
-1 -0.4782608695652174 -1
-0.9130434782608696 -0.4782608695652174 -1
-0.8260869565217391 -0.4782608695652174 -1
-0.7391304347826086 -0.4782608695652174 -1
-0.6521739130434783 -0.4782608695652174 -1
-0.5652173913043479 -0.4782608695652174 -1
-0.4782608695652174 -0.4782608695652174 -1
-0.3913043478260869 -0.4782608695652174 -1
-0.30434782608695654 -0.4782608695652174 -1
-0.21739130434782616 -0.4782608695652174 -1
-0.13043478260869568 -0.4782608695652174 -1
-0.04347826086956519 -0.4782608695652174 -1
0.04347826086956519 -0.4782608695652174 -1
0.13043478260869557 -0.4782608695652174 -1
0.21739130434782616 -0.4782608695652174 -1
0.30434782608695654 -0.4782608695652174 -1
0.3913043478260869 -0.4782608695652174 -1
0.4782608695652173 -0.4782608695652174 -1
0.5652173913043477 -0.4782608695652174 -1
0.6521739130434783 -0.4782608695652174 -1
0.7391304347826086 -0.4782608695652174 -1
0.826086956521739 -0.4782608695652174 -1
0.9130434782608696 -0.4782608695652174 -1
1 -0.4782608695652174 -1
-1 -0.3913043478260869 -1
-0.9130434782608696 -0.3913043478260869 -1
-0.8260869565217391 -0.3913043478260869 -1
-0.7391304347826086 -0.3913043478260869 -1
-0.6521739130434783 -0.3913043478260869 -1
-0.5652173913043479 -0.3913043478260869 -1
-0.4782608695652174 -0.3913043478260869 -1
-0.3913043478260869 -0.3913043478260869 -1
-0.30434782608695654 -0.3913043478260869 -1
-0.21739130434782616 -0.3913043478260869 -1
-0.13043478260869568 -0.3913043478260869 -1
-0.04347826086956519 -0.3913043478260869 -1
0.04347826086956519 -0.3913043478260869 -1
0.13043478260869557 -0.3913043478260869 -1
0.21739130434782616 -0.3913043478260869 -1
0.30434782608695654 -0.3913043478260869 -1
0.3913043478260869 -0.3913043478260869 -1
0.4782608695652173 -0.3913043478260869 -1
0.5652173913043477 -0.3913043478260869 -1
0.6521739130434783 -0.3913043478260869 -1
0.7391304347826086 -0.3913043478260869 -1
0.826086956521739 -0.3913043478260869 -1
0.9130434782608696 -0.3913043478260869 -1
1 -0.3913043478260869 -1
-1 -0.30434782608695654 -1
-0.9130434782608696 -0.30434782608695654 -1
-0.8260869565217391 -0.30434782608695654 -1
-0.7391304347826086 -0.30434782608695654 -1
-0.6521739130434783 -0.30434782608695654 -1
-0.5652173913043479 -0.30434782608695654 -1
-0.4782608695652174 -0.30434782608695654 -1
-0.3913043478260869 -0.30434782608695654 -1
-0.30434782608695654 -0.30434782608695654 -1
-0.21739130434782616 -0.30434782608695654 -1
-0.13043478260869568 -0.30434782608695654 -1
-0.04347826086956519 -0.30434782608695654 -1
0.04347826086956519 -0.30434782608695654 -1
0.13043478260869557 -0.30434782608695654 -1
0.21739130434782616 -0.30434782608695654 -1
0.30434782608695654 -0.30434782608695654 -1
0.3913043478260869 -0.30434782608695654 -1
0.4782608695652173 -0.30434782608695654 -1
0.5652173913043477 -0.30434782608695654 -1
0.6521739130434783 -0.30434782608695654 -1
0.7391304347826086 -0.30434782608695654 -1
0.826086956521739 -0.30434782608695654 -1
0.9130434782608696 -0.30434782608695654 -1
1 -0.30434782608695654 -1
-1 -0.21739130434782616 -1
-0.9130434782608696 -0.21739130434782616 -1
-0.8260869565217391 -0.21739130434782616 -1
-0.7391304347826086 -0.21739130434782616 -1
-0.6521739130434783 -0.21739130434782616 -1
-0.5652173913043479 -0.21739130434782616 -1
-0.4782608695652174 -0.21739130434782616 -1
-0.3913043478260869 -0.21739130434782616 -1
-0.30434782608695654 -0.21739130434782616 -1
-0.21739130434782616 -0.21739130434782616 -1
-0.13043478260869568 -0.21739130434782616 -1
-0.04347826086956519 -0.21739130434782616 -1
0.04347826086956519 -0.21739130434782616 -1
0.13043478260869557 -0.21739130434782616 -1
0.21739130434782616 -0.21739130434782616 -1
0.30434782608695654 -0.21739130434782616 -1
0.3913043478260869 -0.21739130434782616 -1
0.4782608695652173 -0.21739130434782616 -1
0.5652173913043477 -0.21739130434782616 -1
0.6521739130434783 -0.21739130434782616 -1
0.7391304347826086 -0.21739130434782616 -1
0.826086956521739 -0.21739130434782616 -1
0.9130434782608696 -0.21739130434782616 -1
1 -0.21739130434782616 -1
-1 -0.13043478260869568 -1
-0.9130434782608696 -0.13043478260869568 -1
-0.8260869565217391 -0.13043478260869568 -1
-0.7391304347826086 -0.13043478260869568 -1
-0.6521739130434783 -0.13043478260869568 -1
-0.5652173913043479 -0.13043478260869568 -1
-0.4782608695652174 -0.13043478260869568 -1
-0.3913043478260869 -0.13043478260869568 -1
[...]
POINT_DATA 13824
SCALARS phi1 double 1
LOOKUP_TABLE default
1.572995414821913
1.527271418812492
1.485235426367894
1.447208841218451
1.4135152853115596
1.384471150607308
1.3602634350731595
1.3379286633505263
1.3162931281609946
1.2989453334170955
1.2872502602501883
1.281362696182561
1.281362696182561
1.2872502602501883
1.2989453334170955
1.3162931281609946
1.3379286633505263
1.3602634350731597
1.384471150607308
1.4135152853115596
1.447208841218451
1.4852354263678937
1.527271418812492
1.572995414821913
1.527271418812492
1.480135601352891
1.436721157152278
1.3973749825195858
1.3624495856655323
1.3322926775054662
1.3072343160027295
1.2859594082318948
1.265302150362113
1.2472730178659395
1.2350887556789338
1.2289513257483395
1.2289513257483395
1.2350887556789338
1.2472730178659395
1.265302150362113
1.2859594082318948
1.3072343160027293
1.3322926775054662
1.3624495856655323
1.3973749825195858
1.436721157152278
1.480135601352891
1.527271418812492
1.4852354263678937
1.436721157152278
1.3919532924727311
1.3513042317658555
1.3151559445544383
1.2838886492026405
1.2578663847769445
1.2370279992163717
1.2177368131427622
1.1996848987682989
1.1870122617904297
1.1806249346405047
1.1806249346405047
1.1870122617904297
1.1996848987682989
1.2177368131427622
1.237027999216372
1.2578663847769445
1.2838886492026405
1.3151559445544383
1.3513042317658555
1.3919532924727311
1.436721157152278
1.485235426367894
1.447208841218451
1.3973749825195858
1.3513042317658555
1.309393861735628
1.2720551548024595
1.2397012631735167
1.2127312151975196
1.1915106596505245
1.1737480735980486
1.156685179690193
1.1435361202091792
1.1369045627831418
1.1369045627831418
1.1435361202091792
1.156685179690193
1.1737480735980486
1.1915106596505243
1.2127312151975196
1.2397012631735167
1.2720551548024595
1.309393861735628
1.3513042317658555
1.3973749825195858
1.447208841218451
1.4135152853115596
1.3624495856655323
1.3151559445544383
1.2720551548024595
1.2335867819363489
1.2001963396138906
1.1723178033379091
1.1503519825555113
1.1337523161110215
1.118457495546823
1.1052033659699145
1.0983403874961957
1.0983403874961957
1.1052033659699145
1.118457495546823
1.1337523161110215
1.1503519825555113
1.1723178033379091
1.2001963396138904
1.2335867819363489
1.2720551548024595
1.3151559445544383
1.3624495856655323
1.4135152853115596
1.384471150607308
1.3322926775054662
1.2838886492026405
1.2397012631735167
1.2001963396138904
1.1658499726281615
1.1371296922855916
1.1144705419273762
1.0981858987070527
1.084855689169648
1.072565604252407
1.0654924223472426
1.0654924223472426
1.072565604252407
1.084855689169648
1.0981858987070527
1.1144705419273762
1.1371296922855916
1.1658499726281615
1.2001963396138906
1.2397012631735167
1.2838886492026405
1.3322926775054662
1.384471150607308
1.3602634350731597
1.3072343160027293
1.2578663847769445
1.2127312151975196
1.1723178033379091
1.1371296922855916
1.107664983412387
1.084390320513946
1.0677105845296513
1.0563071253771639
1.0460620335335136
1.0389030131342545
1.0389030131342545
1.0460620335335136
1.0563071253771639
1.0677105845296513
1.084390320513946
1.107664983412387
1.1371296922855916
1.1723178033379091
1.2127312151975196
1.2578663847769445
1.3072343160027295
1.3602634350731597
1.3379286633505263
1.2859594082318948
1.2370279992163717
1.1915106596505243
1.1503519825555113
1.1144705419273762
1.084390320513946
1.0606050249601469
1.0435451806524838
1.03323075822457
1.0253650948642585
1.0190621731108491
1.0190621731108491
1.0253650948642585
1.03323075822457
1.0435451806524838
1.0606050249601469
1.084390320513946
1.1144705419273762
1.1503519825555113
1.1915106596505245
1.237027999216372
1.2859594082318948
1.3379286633505263
1.3162931281609946
1.265302150362113
1.2177368131427622
1.1737480735980486
1.1337523161110215
1.0981858987070527
1.0677105845296513
1.0435451806524838
1.026201768248007
1.0160297572382329
1.0106480877890416
1.0063691032863067
1.0063691032863067
1.0106480877890416
1.0160297572382329
1.026201768248007
1.0435451806524838
1.0677105845296513
1.0981858987070525
1.1337523161110215
1.1737480735980486
1.2177368131427622
1.265302150362113
1.3162931281609946
1.2989453334170955
1.2472730178659395
1.1996848987682989
1.156685179690193
1.118457495546823
1.084855689169648
1.0563071253771639
1.03323075822457
1.0160297572382329
1.0057548737300899
1.00217449416618
1.0005346943518978
1.0005346943518978
1.00217449416618
1.0057548737300899
1.0160297572382329
1.03323075822457
1.0563071253771639
1.0848556891696477
1.118457495546823
1.156685179690193
1.1996848987682989
1.2472730178659395
1.2989453334170955
1.2872502602501883
1.2350887556789338
1.1870122617904297
1.1435361202091792
1.1052033659699145
1.072565604252407
1.0460620335335136
1.0253650948642585
1.0106480877890416
1.00217449416618
1
1
1
1
1.00217449416618
1.0106480877890416
1.0253650948642585
1.0460620335335136
1.072565604252407
1.1052033659699145
1.1435361202091792
1.1870122617904297
1.2350887556789338
1.2872502602501883
1.281362696182561
1.2289513257483395
1.1806249346405047
1.1369045627831418
1.0983403874961957
1.0654924223472426
1.0389030131342545
1.0190621731108491
1.0063691032863067
1.0005346943518978
1
1
1
1
1.0005346943518978
1.0063691032863067
1.0190621731108491
1.0389030131342545
1.0654924223472426
1.0983403874961957
1.1369045627831418
1.1806249346405047
1.2289513257483395
1.281362696182561
1.281362696182561
1.2289513257483395
1.1806249346405047
1.1369045627831418
1.0983403874961957
1.0654924223472426
1.0389030131342545
1.0190621731108491
1.0063691032863067
1.0005346943518978
1
1
1
1
1.0005346943518978
1.0063691032863067
1.0190621731108491
1.0389030131342545
1.0654924223472426
1.0983403874961957
1.1369045627831418
1.1806249346405047
1.2289513257483395
1.281362696182561
1.2872502602501883
1.2350887556789338
1.1870122617904297
1.1435361202091792
1.1052033659699145
1.072565604252407
1.0460620335335136
1.0253650948642585
1.0106480877890416
1.00217449416618
1
1
1
1
1.00217449416618
1.0106480877890416
1.0253650948642585
1.0460620335335136
1.072565604252407
1.1052033659699145
1.1435361202091792
1.1870122617904297
1.2350887556789338
1.2872502602501883
1.2989453334170955
1.2472730178659395
1.1996848987682989
1.156685179690193
1.118457495546823
1.084855689169648
1.0563071253771639
1.03323075822457
1.0160297572382329
1.0057548737300899
1.00217449416618
1.0005346943518978
1.0005346943518978
1.00217449416618
1.0057548737300899
1.0160297572382329
1.03323075822457
1.0563071253771639
1.0848556891696477
1.118457495546823
1.156685179690193
1.1996848987682989
1.2472730178659395
1.2989453334170955
1.3162931281609946
1.265302150362113
1.2177368131427622
1.1737480735980486
1.1337523161110215
1.0981858987070527
1.0677105845296513
1.0435451806524838
1.026201768248007
1.0160297572382329
1.0106480877890416
1.0063691032863067
1.0063691032863067
1.0106480877890416
1.0160297572382329
1.0262017682480067
1.0435451806524838
1.0677105845296513
1.0981858987070525
1.1337523161110215
1.1737480735980486
1.2177368131427622
1.265302150362113
1.3162931281609946
1.3379286633505263
1.2859594082318948
1.2370279992163717
1.1915106596505245
1.1503519825555113
1.1144705419273762
1.084390320513946
1.0606050249601469
1.0435451806524838
1.03323075822457
1.0253650948642585
1.0190621731108491
1.0190621731108491
1.0253650948642585
1.03323075822457
1.0435451806524838
1.0606050249601469
1.084390320513946
1.114470541927376
1.1503519825555113
1.1915106596505243
1.2370279992163717
1.2859594082318948
1.3379286633505263
1.3602634350731595
1.3072343160027293
1.2578663847769445
1.2127312151975196
1.1723178033379091
1.1371296922855916
1.107664983412387
1.084390320513946
1.0677105845296513
1.0563071253771639
1.0460620335335136
1.0389030131342545
1.0389030131342545
1.0460620335335136
1.0563071253771639
1.0677105845296513
1.084390320513946
1.107664983412387
1.1371296922855914
1.1723178033379091
1.2127312151975196
1.2578663847769445
1.3072343160027293
1.3602634350731595
1.384471150607308
1.3322926775054662
1.2838886492026405
1.2397012631735167
1.2001963396138904
1.1658499726281615
1.1371296922855916
1.114470541927376
1.0981858987070525
1.0848556891696477
1.072565604252407
1.0654924223472426
1.0654924223472426
1.072565604252407
1.0848556891696477
1.0981858987070525
1.114470541927376
1.1371296922855914
1.1658499726281613
1.2001963396138904
1.2397012631735167
1.2838886492026402
1.3322926775054662
1.384471150607308
1.4135152853115596
1.3624495856655323
1.3151559445544383
1.2720551548024595
1.2335867819363489
1.2001963396138904
1.1723178033379091
1.1503519825555113
1.1337523161110215
1.118457495546823
1.1052033659699145
1.0983403874961957
1.0983403874961957
1.1052033659699145
1.118457495546823
1.1337523161110215
1.1503519825555113
1.1723178033379091
1.2001963396138904
1.2335867819363489
1.2720551548024595
1.3151559445544383
1.3624495856655323
1.4135152853115596
1.447208841218451
1.3973749825195858
1.3513042317658555
1.309393861735628
1.2720551548024595
1.2397012631735167
1.2127312151975196
1.1915106596505243
1.1737480735980486
1.156685179690193
1.1435361202091792
1.1369045627831418
1.1369045627831418
1.1435361202091792
1.156685179690193
1.1737480735980486
1.1915106596505243
1.2127312151975196
1.2397012631735167
1.2720551548024595
1.309393861735628
1.3513042317658555
1.3973749825195856
1.4472088412184507
1.4852354263678937
1.436721157152278
1.3919532924727311
1.3513042317658555
1.3151559445544383
1.2838886492026405
1.2578663847769445
1.2370279992163717
1.217736813142762
1.1996848987682989
1.1870122617904297
1.1806249346405047
1.1806249346405047
1.1870122617904297
1.1996848987682989
1.217736813142762
1.2370279992163717
1.2578663847769445
1.2838886492026402
1.3151559445544383
1.3513042317658555
1.391953292472731
1.4367211571522778
1.4852354263678937
1.527271418812492
1.480135601352891
1.436721157152278
1.3973749825195858
1.3624495856655323
1.3322926775054662
1.3072343160027293
1.2859594082318948
1.265302150362113
1.2472730178659395
1.2350887556789338
1.2289513257483395
1.2289513257483395
1.2350887556789338
1.2472730178659395
1.265302150362113
1.2859594082318948
1.3072343160027293
1.3322926775054662
1.3624495856655323
1.3973749825195856
1.4367211571522778
1.4801356013528908
1.527271418812492
1.572995414821913
1.527271418812492
1.4852354263678937
1.447208841218451
1.4135152853115596
1.384471150607308
1.3602634350731597
1.3379286633505263
1.3162931281609946
1.2989453334170955
1.2872502602501883
1.281362696182561
1.281362696182561
1.2872502602501883
1.2989453334170955
1.3162931281609946
1.3379286633505263
1.3602634350731595
1.384471150607308
1.4135152853115596
1.4472088412184507
1.4852354263678937
1.527271418812492
1.572995414821913
1.5191981333076567
1.4718037844482632
1.4281360806775125
1.3885466586670967
1.3533934590517744
1.323030143291766
1.297676772540735
1.274245463562509
1.251509485556767
1.2332507337929122
1.2209265439447554
1.214717560737042
1.214717560737042
1.2209265439447554
1.2332507337929122
1.251509485556767
1.274245463562509
1.2976767725407352
1.323030143291766
1.3533934590517742
1.3885466586670967
1.4281360806775123
1.4718037844482632
1.5191981333076567
1.4718037844482632
1.422831610411784
1.3776124551569964
1.3365273042352408
1.2999681791008917
1.2683265240975572
1.2419782406023991
1.219565493450365
1.1977637183124619
1.1787019870565738
1.165801281350833
1.1592970949041959
1.1592970949041959
1.165801281350833
1.1787019870565738
1.1977637183124619
1.2195654934503648
1.2419782406023991
1.2683265240975572
1.2999681791008915
1.3365273042352406
1.3776124551569964
1.422831610411784
1.4718037844482632
1.4281360806775123
1.3776124551569964
1.3308577540895885
1.2882823913967838
1.2503133813934744
1.2173818040147009
1.1899059774396157
1.1678555835547335
1.147401995500181
1.1282252654179528
1.1147405540463389
1.1079366540960738
1.1079366540960738
1.1147405540463389
1.1282252654179528
1.147401995500181
1.1678555835547337
1.1899059774396157
1.2173818040147009
1.2503133813934746
1.2882823913967838
1.3308577540895885
1.3776124551569964
1.4281360806775125
1.3885466586670967
1.3365273042352406
1.2882823913967838
1.244251051173214
1.204895310827549
1.1706868134171156
1.1420881723882617
1.1195293856150157
1.10060571208305
1.082390409283841
1.0683273147391532
1.0612258845655027
1.0612258845655027
1.0683273147391532
1.082390409283841
1.10060571208305
1.1195293856150157
1.1420881723882614
1.1706868134171153
1.204895310827549
1.244251051173214
1.2882823913967838
1.3365273042352408
1.3885466586670967
1.3533934590517742
1.2999681791008915
1.2503133813934746
1.204895310827549
1.1642099216905792
1.1287690848075562
1.099080263319166
1.075619857088973
1.0578481495383978
1.0414391785119181
1.0271917412761533
1.019803902718557
1.019803902718557
1.0271917412761533
1.0414391785119181
1.0578481495383978
1.075619857088973
1.099080263319166
1.1287690848075562
1.1642099216905792
1.204895310827549
1.2503133813934744
1.2999681791008917
1.3533934590517744
1.323030143291766
1.2683265240975572
1.2173818040147009
1.1706868134171153
1.1287690848075562
1.092178809477547
1.0614670650906843
1.037156199431217
1.0196375146657384
1.0052662629962565
0.9919906091390371
0.9843386080379567
0.9843386080379567
0.9919906091390371
1.0052662629962565
1.0196375146657386
1.037156199431217
1.0614670650906843
1.092178809477547
1.1287690848075562
1.1706868134171156
1.2173818040147009
1.2683265240975572
1.323030143291766
1.2976767725407352
1.2419782406023991
1.1899059774396157
1.1420881723882617
1.099080263319166
1.0614670650906843
1.029839846127868
1.004764032208083
0.9867392185939285
0.9743885961551862
0.9632726359629329
0.9554935184992832
0.9554935184992832
0.9632726359629327
0.9743885961551862
0.9867392185939285
1.004764032208083
1.029839846127868
1.0614670650906843
1.099080263319166
1.1420881723882617
1.1899059774396157
1.2419782406023991
1.2976767725407352
1.274245463562509
1.2195654934503648
1.1678555835547335
1.1195293856150157
1.075619857088973
1.037156199431217
1.004764032208083
0.9790461746850457
0.9605388785768809
0.9493230182272137
0.9407560634727247
0.9338822762319208
0.9338822762319208
0.9407560634727247
0.9493230182272137
0.9605388785768809
0.9790461746850457
1.004764032208083
1.037156199431217
1.075619857088973
1.1195293856150157
1.1678555835547337
1.219565493450365
1.274245463562509
1.251509485556767
1.1977637183124619
1.147401995500181
1.1006057120830497
1.0578481495383978
1.0196375146657384
0.9867392185939285
0.9605388785768809
0.9416679151112897
0.9305723296919427
0.9246934359810031
0.9200147636011021
0.9200147636011021
0.9246934359810031
0.9305723296919427
0.9416679151112897
0.9605388785768809
0.9867392185939285
1.0196375146657384
1.0578481495383978
1.10060571208305
1.147401995500181
1.1977637183124619
1.251509485556767
1.2332507337929122
1.1787019870565738
1.1282252654179528
1.082390409283841
1.0414391785119181
1.0052662629962565
0.9743885961551862
0.9493230182272137
0.9305723296919427
0.9193428409611597
0.9154245517528715
0.9136290646627616
0.9136290646627616
0.9154245517528715
0.9193428409611597
0.9305723296919427
0.9493230182272137
0.9743885961551862
1.0052662629962563
1.0414391785119181
1.082390409283841
1.1282252654179528
1.1787019870565738
1.2332507337929122
1.2209265439447554
1.165801281350833
1.1147405540463389
1.0683273147391532
1.0271917412761533
0.9919906091390371
0.9632726359629327
0.9407560634727247
0.9246934359810031
0.9154245517528715
0.9130434782608696
0.9130434782608696
0.9130434782608696
0.9130434782608696
0.9154245517528715
0.9246934359810031
0.9407560634727247
0.9632726359629327
0.991990609139037
1.0271917412761533
1.0683273147391532
1.1147405540463389
1.165801281350833
1.2209265439447554
1.214717560737042
1.1592970949041959
1.1079366540960738
1.0612258845655027
1.019803902718557
0.9843386080379567
0.9554935184992832
0.9338822762319208
0.9200147636011021
0.9136290646627616
0.9130434782608696
0.9130434782608696
0.9130434782608696
0.9130434782608696
0.9136290646627616
0.9200147636011021
0.9338822762319208
0.9554935184992831
0.9843386080379566
1.019803902718557
1.0612258845655027
1.1079366540960738
1.1592970949041959
1.214717560737042
1.214717560737042
1.1592970949041959
1.1079366540960738
1.0612258845655027
1.019803902718557
0.9843386080379567
0.9554935184992832
0.9338822762319208
0.9200147636011021
0.9136290646627616
0.9130434782608696
0.9130434782608696
0.9130434782608696
0.9130434782608696
0.9136290646627616
0.9200147636011021
0.9338822762319208
0.9554935184992831
0.9843386080379566
1.019803902718557
1.0612258845655027
1.1079366540960738
1.1592970949041959
1.214717560737042
1.2209265439447554
1.165801281350833
1.1147405540463389
1.0683273147391532
1.0271917412761533
0.9919906091390371
0.9632726359629327
0.9407560634727247
0.9246934359810031
0.9154245517528715
0.9130434782608696
0.9130434782608696
0.9130434782608696
0.9130434782608696
0.9154245517528715
0.9246934359810031
0.9407560634727247
0.9632726359629327
0.991990609139037
1.0271917412761533
1.0683273147391532
1.1147405540463389
1.165801281350833
1.2209265439447554
1.2332507337929122
1.1787019870565738
1.1282252654179528
1.082390409283841
1.0414391785119181
1.0052662629962565
0.9743885961551862
0.9493230182272137
0.9305723296919427
0.9193428409611597
0.9154245517528715
0.9136290646627616
0.9136290646627616
0.9154245517528715
0.9193428409611597
0.9305723296919427
0.9493230182272137
0.9743885961551862
1.0052662629962563
1.0414391785119181
1.082390409283841
1.1282252654179528
1.1787019870565738
1.2332507337929122
1.251509485556767
1.1977637183124619
1.147401995500181
1.10060571208305
1.0578481495383978
1.0196375146657384
0.9867392185939285
0.9605388785768809
0.9416679151112897
0.9305723296919427
0.9246934359810031
0.9200147636011021
0.9200147636011021
0.9246934359810031
0.9305723296919427
0.9416679151112897
0.9605388785768809
0.9867392185939285
1.0196375146657384
1.0578481495383978
1.1006057120830497
1.147401995500181
1.1977637183124619
1.251509485556767
1.274245463562509
1.219565493450365
1.1678555835547335
1.1195293856150157
1.075619857088973
1.037156199431217
1.004764032208083
0.9790461746850457
0.9605388785768809
0.9493230182272137
0.9407560634727247
0.9338822762319208
0.9338822762319208
0.9407560634727247
0.9493230182272137
0.9605388785768809
0.9790461746850457
1.004764032208083
1.037156199431217
1.075619857088973
1.1195293856150157
1.1678555835547335
1.2195654934503648
1.274245463562509
1.297676772540735
1.2419782406023991
1.1899059774396157
1.1420881723882617
1.099080263319166
1.0614670650906843
1.029839846127868
1.004764032208083
0.9867392185939285
0.9743885961551862
0.9632726359629327
0.9554935184992831
0.9554935184992831
0.9632726359629327
0.9743885961551862
0.9867392185939285
1.004764032208083
1.029839846127868
1.0614670650906843
1.099080263319166
1.1420881723882614
1.1899059774396157
1.2419782406023991
1.297676772540735
1.323030143291766
1.2683265240975572
1.2173818040147009
1.1706868134171153
1.1287690848075562
1.0921788094775469
1.0614670650906843
1.037156199431217
1.0196375146657384
1.0052662629962563
0.991990609139037
0.9843386080379566
0.9843386080379566
0.991990609139037
1.0052662629962563
1.0196375146657384
1.037156199431217
1.0614670650906843
1.0921788094775469
1.1287690848075562
1.1706868134171153
1.2173818040147006
1.268326524097557
1.3230301432917657
1.3533934590517744
1.2999681791008917
1.2503133813934744
1.204895310827549
1.1642099216905792
1.1287690848075562
1.099080263319166
1.075619857088973
1.0578481495383978
1.0414391785119181
1.0271917412761533
1.019803902718557
1.019803902718557
1.0271917412761533
1.0414391785119181
1.0578481495383978
1.075619857088973
1.099080263319166
1.1287690848075562
1.164209921690579
1.204895310827549
1.2503133813934744
1.2999681791008915
1.3533934590517742
1.3885466586670967
1.3365273042352408
1.2882823913967838
1.244251051173214
1.204895310827549
1.1706868134171153
1.1420881723882617
1.1195293856150157
1.1006057120830497
1.082390409283841
1.0683273147391532
1.0612258845655027
1.0612258845655027
1.0683273147391532
1.082390409283841
1.1006057120830497
1.1195293856150157
1.1420881723882614
1.1706868134171153
1.204895310827549
1.244251051173214