# vtk DataFile Version 4.1
Header:
ASCII

DATASET UNSTRUCTURED_GRID
POINTS 10648 double
-1 -1 -1
-0.9047619047619048 -1 -1
-0.8095238095238095 -1 -1
-0.7142857142857143 -1 -1
-0.6190476190476191 -1 -1
-0.5238095238095238 -1 -1
-0.4285714285714286 -1 -1
-0.33333333333333337 -1 -1
-0.23809523809523814 -1 -1
-0.1428571428571429 -1 -1
-0.04761904761904767 -1 -1
0.04761904761904745 -1 -1
0.1428571428571428 -1 -1
0.23809523809523814 -1 -1
0.33333333333333326 -1 -1
0.4285714285714284 -1 -1
0.5238095238095237 -1 -1
0.6190476190476191 -1 -1
0.7142857142857142 -1 -1
0.8095238095238093 -1 -1
0.9047619047619047 -1 -1
1 -1 -1
-1 -0.9047619047619048 -1
-0.9047619047619048 -0.9047619047619048 -1
-0.8095238095238095 -0.9047619047619048 -1
-0.7142857142857143 -0.9047619047619048 -1
-0.6190476190476191 -0.9047619047619048 -1
-0.5238095238095238 -0.9047619047619048 -1
-0.4285714285714286 -0.9047619047619048 -1
-0.33333333333333337 -0.9047619047619048 -1
-0.23809523809523814 -0.9047619047619048 -1
-0.1428571428571429 -0.9047619047619048 -1
-0.04761904761904767 -0.9047619047619048 -1
0.04761904761904745 -0.9047619047619048 -1
0.1428571428571428 -0.9047619047619048 -1
0.23809523809523814 -0.9047619047619048 -1
0.33333333333333326 -0.9047619047619048 -1
0.4285714285714284 -0.9047619047619048 -1
0.5238095238095237 -0.9047619047619048 -1
0.6190476190476191 -0.9047619047619048 -1
0.7142857142857142 -0.9047619047619048 -1
0.8095238095238093 -0.9047619047619048 -1
0.9047619047619047 -0.9047619047619048 -1
1 -0.9047619047619048 -1
-1 -0.8095238095238095 -1
-0.9047619047619048 -0.8095238095238095 -1
-0.8095238095238095 -0.8095238095238095 -1
-0.7142857142857143 -0.8095238095238095 -1
-0.6190476190476191 -0.8095238095238095 -1
-0.5238095238095238 -0.8095238095238095 -1
-0.4285714285714286 -0.8095238095238095 -1
-0.33333333333333337 -0.8095238095238095 -1
-0.23809523809523814 -0.8095238095238095 -1
-0.1428571428571429 -0.8095238095238095 -1
-0.04761904761904767 -0.8095238095238095 -1
0.04761904761904745 -0.8095238095238095 -1
0.1428571428571428 -0.8095238095238095 -1
0.23809523809523814 -0.8095238095238095 -1
0.33333333333333326 -0.8095238095238095 -1
0.4285714285714284 -0.8095238095238095 -1
0.5238095238095237 -0.8095238095238095 -1
0.6190476190476191 -0.8095238095238095 -1
0.7142857142857142 -0.8095238095238095 -1
0.8095238095238093 -0.8095238095238095 -1
0.9047619047619047 -0.8095238095238095 -1
1 -0.8095238095238095 -1
-1 -0.7142857142857143 -1
-0.9047619047619048 -0.7142857142857143 -1
-0.8095238095238095 -0.7142857142857143 -1
-0.7142857142857143 -0.7142857142857143 -1
-0.6190476190476191 -0.7142857142857143 -1
-0.5238095238095238 -0.7142857142857143 -1
-0.4285714285714286 -0.7142857142857143 -1
-0.33333333333333337 -0.7142857142857143 -1
-0.23809523809523814 -0.7142857142857143 -1
-0.1428571428571429 -0.7142857142857143 -1
-0.04761904761904767 -0.7142857142857143 -1
0.04761904761904745 -0.7142857142857143 -1
0.1428571428571428 -0.7142857142857143 -1
0.23809523809523814 -0.7142857142857143 -1
0.33333333333333326 -0.7142857142857143 -1
0.4285714285714284 -0.7142857142857143 -1
0.5238095238095237 -0.7142857142857143 -1
0.6190476190476191 -0.7142857142857143 -1
0.7142857142857142 -0.7142857142857143 -1
0.8095238095238093 -0.7142857142857143 -1
0.9047619047619047 -0.7142857142857143 -1
1 -0.7142857142857143 -1
-1 -0.6190476190476191 -1
-0.9047619047619048 -0.6190476190476191 -1
-0.8095238095238095 -0.6190476190476191 -1
-0.7142857142857143 -0.6190476190476191 -1
-0.6190476190476191 -0.6190476190476191 -1
-0.5238095238095238 -0.6190476190476191 -1
-0.4285714285714286 -0.6190476190476191 -1
-0.33333333333333337 -0.6190476190476191 -1
-0.23809523809523814 -0.6190476190476191 -1
-0.1428571428571429 -0.6190476190476191 -1
-0.04761904761904767 -0.6190476190476191 -1
0.04761904761904745 -0.6190476190476191 -1
0.1428571428571428 -0.6190476190476191 -1
0.23809523809523814 -0.6190476190476191 -1
0.33333333333333326 -0.6190476190476191 -1
0.4285714285714284 -0.6190476190476191 -1
0.5238095238095237 -0.6190476190476191 -1
0.6190476190476191 -0.6190476190476191 -1
0.7142857142857142 -0.6190476190476191 -1
0.8095238095238093 -0.6190476190476191 -1
0.9047619047619047 -0.6190476190476191 -1
1 -0.6190476190476191 -1
-1 -0.5238095238095238 -1
-0.9047619047619048 -0.5238095238095238 -1
-0.8095238095238095 -0.5238095238095238 -1
-0.7142857142857143 -0.5238095238095238 -1
-0.6190476190476191 -0.5238095238095238 -1
-0.5238095238095238 -0.5238095238095238 -1
-0.4285714285714286 -0.5238095238095238 -1
-0.33333333333333337 -0.5238095238095238 -1
-0.23809523809523814 -0.5238095238095238 -1
-0.1428571428571429 -0.5238095238095238 -1
-0.04761904761904767 -0.5238095238095238 -1
0.04761904761904745 -0.5238095238095238 -1
0.1428571428571428 -0.5238095238095238 -1
0.23809523809523814 -0.5238095238095238 -1
0.33333333333333326 -0.5238095238095238 -1
0.4285714285714284 -0.5238095238095238 -1
0.5238095238095237 -0.5238095238095238 -1
0.6190476190476191 -0.5238095238095238 -1
0.7142857142857142 -0.5238095238095238 -1
0.8095238095238093 -0.5238095238095238 -1
0.9047619047619047 -0.5238095238095238 -1
1 -0.5238095238095238 -1
-1 -0.4285714285714286 -1
-0.9047619047619048 -0.4285714285714286 -1
-0.8095238095238095 -0.4285714285714286 -1
-0.7142857142857143 -0.4285714285714286 -1
-0.6190476190476191 -0.4285714285714286 -1
-0.5238095238095238 -0.4285714285714286 -1
-0.4285714285714286 -0.4285714285714286 -1
-0.33333333333333337 -0.4285714285714286 -1
-0.23809523809523814 -0.4285714285714286 -1
-0.1428571428571429 -0.4285714285714286 -1
-0.04761904761904767 -0.4285714285714286 -1
0.04761904761904745 -0.4285714285714286 -1
0.1428571428571428 -0.4285714285714286 -1
0.23809523809523814 -0.4285714285714286 -1
0.33333333333333326 -0.4285714285714286 -1
0.4285714285714284 -0.4285714285714286 -1
0.5238095238095237 -0.4285714285714286 -1
0.6190476190476191 -0.4285714285714286 -1
0.7142857142857142 -0.4285714285714286 -1
0.8095238095238093 -0.4285714285714286 -1
0.9047619047619047 -0.4285714285714286 -1
1 -0.4285714285714286 -1
-1 -0.33333333333333337 -1
-0.9047619047619048 -0.33333333333333337 -1
-0.8095238095238095 -0.33333333333333337 -1
-0.7142857142857143 -0.33333333333333337 -1
-0.6190476190476191 -0.33333333333333337 -1
-0.5238095238095238 -0.33333333333333337 -1
-0.4285714285714286 -0.33333333333333337 -1
-0.33333333333333337 -0.33333333333333337 -1
-0.23809523809523814 -0.33333333333333337 -1
-0.1428571428571429 -0.33333333333333337 -1
-0.04761904761904767 -0.33333333333333337 -1
0.04761904761904745 -0.33333333333333337 -1
0.1428571428571428 -0.33333333333333337 -1
0.23809523809523814 -0.33333333333333337 -1
0.33333333333333326 -0.33333333333333337 -1
0.4285714285714284 -0.33333333333333337 -1
0.5238095238095237 -0.33333333333333337 -1
0.6190476190476191 -0.33333333333333337 -1
0.7142857142857142 -0.33333333333333337 -1
0.8095238095238093 -0.33333333333333337 -1
0.9047619047619047 -0.33333333333333337 -1
1 -0.33333333333333337 -1
-1 -0.23809523809523814 -1
-0.9047619047619048 -0.23809523809523814 -1
-0.8095238095238095 -0.23809523809523814 -1
-0.7142857142857143 -0.23809523809523814 -1
-0.6190476190476191 -0.23809523809523814 -1
-0.5238095238095238 -0.23809523809523814 -1
-0.4285714285714286 -0.23809523809523814 -1
-0.33333333333333337 -0.23809523809523814 -1
-0.23809523809523814 -0.23809523809523814 -1
-0.1428571428571429 -0.23809523809523814 -1
-0.04761904761904767 -0.23809523809523814 -1
0.04761904761904745 -0.23809523809523814 -1
0.1428571428571428 -0.23809523809523814 -1
0.23809523809523814 -0.23809523809523814 -1
0.33333333333333326 -0.23809523809523814 -1
0.4285714285714284 -0.23809523809523814 -1
0.5238095238095237 -0.23809523809523814 -1
0.6190476190476191 -0.23809523809523814 -1
0.7142857142857142 -0.23809523809523814 -1
0.8095238095238093 -0.23809523809523814 -1
0.9047619047619047 -0.23809523809523814 -1
1 -0.23809523809523814 -1
-1 -0.1428571428571429 -1
-0.9047619047619048 -0.1428571428571429 -1
-0.8095238095238095 -0.1428571428571429 -1
-0.7142857142857143 -0.1428571428571429 -1
-0.6190476190476191 -0.1428571428571429 -1
-0.5238095238095238 -0.1428571428571429 -1
-0.4285714285714286 -0.1428571428571429 -1
-0.33333333333333337 -0.1428571428571429 -1
-0.23809523809523814 -0.1428571428571429 -1
-0.1428571428571429 -0.1428571428571429 -1
-0.04761904761904767 -0.1428571428571429 -1
0.04761904761904745 -0.1428571428571429 -1
0.1428571428571428 -0.1428571428571429 -1
0.23809523809523814 -0.1428571428571429 -1
0.33333333333333326 -0.1428571428571429 -1
0.4285714285714284 -0.1428571428571429 -1
0.5238095238095237 -0.1428571428571429 -1
0.6190476190476191 -0.1428571428571429 -1
0.7142857142857142 -0.1428571428571429 -1
0.8095238095238093 -0.1428571428571429 -1
0.9047619047619047 -0.1428571428571429 -1
1 -0.1428571428571429 -1
-1 -0.04761904761904767 -1
-0.9047619047619048 -0.04761904761904767 -1
-0.8095238095238095 -0.04761904761904767 -1
-0.7142857142857143 -0.04761904761904767 -1
-0.6190476190476191 -0.04761904761904767 -1
-0.5238095238095238 -0.04761904761904767 -1
-0.4285714285714286 -0.04761904761904767 -1
-0.33333333333333337 -0.04761904761904767 -1
-0.23809523809523814 -0.04761904761904767 -1
-0.1428571428571429 -0.04761904761904767 -1
-0.04761904761904767 -0.04761904761904767 -1
0.04761904761904745 -0.04761904761904767 -1
0.1428571428571428 -0.04761904761904767 -1
0.23809523809523814 -0.04761904761904767 -1
0.33333333333333326 -0.04761904761904767 -1
0.4285714285714284 -0.04761904761904767 -1
0.5238095238095237 -0.04761904761904767 -1
0.6190476190476191 -0.04761904761904767 -1
0.7142857142857142 -0.04761904761904767 -1
0.8095238095238093 -0.04761904761904767 -1
0.9047619047619047 -0.04761904761904767 -1
1 -0.04761904761904767 -1
-1 0.04761904761904745 -1
-0.9047619047619048 0.04761904761904745 -1
-0.8095238095238095 0.04761904761904745 -1
-0.7142857142857143 0.04761904761904745 -1
-0.6190476190476191 0.04761904761904745 -1
-0.5238095238095238 0.04761904761904745 -1
[...]
POINT_DATA 10648
SCALARS phi1 double 1
LOOKUP_TABLE default
1.490141233160395
1.4459344393443139
1.406795116770132
1.3731566508682775
1.345431701963515
1.3232135781550967
1.302333764122333
1.2821501163152145
1.262792635865308
1.2483445285886947
1.2410574009642623
1.2410574009642623
1.2483445285886947
1.262792635865308
1.2821501163152145
1.302333764122333
1.3232135781550967
1.345431701963515
1.3731566508682773
1.406795116770132
1.4459344393443139
1.490141233160395
1.4459344393443139
1.400332785804549
1.359881615687727
1.325052714400811
1.2962993376398886
1.274001516237132
1.2546588400155307
1.2353442676028066
1.216060816817571
1.2010506779735384
1.1934748181220811
1.1934748181220811
1.2010506779735384
1.216060816817571
1.2353442676028066
1.2546588400155307
1.2740015162371319
1.2962993376398886
1.325052714400811
1.3598816156877267
1.4003327858045487
1.4459344393443139
1.406795116770132
1.359881615687727
1.3181897080359095
1.282228838245066
1.2524927426743628
1.228277220929609
1.2080323847353958
1.1891901217330383
1.1711791820726802
1.1558288319603376
1.1479545719328954
1.1479545719328954
1.1558288319603376
1.1711791820726802
1.1891901217330383
1.2080323847353958
1.2282772209296087
1.2524927426743628
1.282228838245066
1.3181897080359095
1.359881615687727
1.406795116770132
1.3731566508682775
1.325052714400811
1.282228838245066
1.2452298907763124
1.2134182099821318
1.1856087764263767
1.1640070402844787
1.1472027342765652
1.1313599389116442
1.1168300665276518
1.1086788569874497
1.1086788569874497
1.1168300665276518
1.1313599389116442
1.1472027342765652
1.1640070402844787
1.1856087764263767
1.2134182099821318
1.2452298907763122
1.282228838245066
1.325052714400811
1.3731566508682775
1.345431701963515
1.2962993376398886
1.2524927426743628
1.2134182099821318
1.1779336064354768
1.1483166857158829
1.1259997467966376
1.1106120128874595
1.097166308251399
1.0847789639318768
1.076419298512211
1.076419298512211
1.0847789639318766
1.097166308251399
1.1106120128874595
1.1259997467966374
1.1483166857158829
1.1779336064354768
1.2134182099821318
1.2524927426743626
1.2962993376398886
1.345431701963515
1.3232135781550967
1.2740015162371319
1.2282772209296087
1.1856087764263765
1.1483166857158829
1.1179153994005677
1.0949790223148173
1.0799666358468487
1.0691381885817974
1.058980936340842
1.050813413686349
1.050813413686349
1.058980936340842
1.0691381885817974
1.0799666358468487
1.094979022314817
1.1179153994005677
1.1483166857158829
1.1856087764263765
1.2282772209296087
1.2740015162371319
1.3232135781550967
1.302333764122333
1.2546588400155305
1.2080323847353958
1.1640070402844787
1.1259997467966374
1.0949790223148173
1.0715518085478157
1.055750287047779
1.044623901326915
1.0347326790659606
1.0268945766997355
1.0268945766997353
1.0347326790659606
1.044623901326915
1.055750287047779
1.0715518085478157
1.0949790223148173
1.1259997467966376
1.1640070402844787
1.2080323847353958
1.2546588400155305
1.302333764122333
1.2821501163152145
1.2353442676028066
1.1891901217330383
1.1472027342765652
1.1106120128874595
1.0799666358468487
1.055750287047779
1.0361704851967102
1.0228274763548277
1.0156927140665568
1.009972945911881
1.009972945911881
1.0156927140665568
1.0228274763548277
1.0361704851967102
1.055750287047779
1.0799666358468487
1.1106120128874595
1.1472027342765652
1.1891901217330383
1.2353442676028066
1.2821501163152145
1.262792635865308
1.216060816817571
1.1711791820726802
1.1313599389116442
1.097166308251399
1.0691381885817974
1.0446239013269152
1.0228274763548277
1.009302570524301
1.004029692500613
1.0014257480252928
1.0014257480252928
1.004029692500613
1.009302570524301
1.0228274763548275
1.044623901326915
1.0691381885817972
1.097166308251399
1.131359938911644
1.17117918207268
1.216060816817571
1.262792635865308
1.2483445285886947
1.2010506779735384
1.1558288319603376
1.1168300665276518
1.0847789639318766
1.058980936340842
1.0347326790659606
1.0156927140665568
1.004029692500613
1.000002061481093
1
1
1.000002061481093
1.004029692500613
1.0156927140665568
1.0347326790659606
1.0589809363408416
1.0847789639318768
1.1168300665276518
1.1558288319603376
1.2010506779735384
1.2483445285886947
1.2410574009642623
1.1934748181220811
1.1479545719328954
1.1086788569874497
1.076419298512211
1.050813413686349
1.0268945766997355
1.009972945911881
1.0014257480252928
1
1
1
1
1.0014257480252928
1.009972945911881
1.0268945766997353
1.050813413686349
1.076419298512211
1.1086788569874497
1.1479545719328954
1.1934748181220811
1.2410574009642623
1.241057400964262
1.1934748181220811
1.1479545719328954
1.1086788569874497
1.076419298512211
1.050813413686349
1.0268945766997353
1.009972945911881
1.0014257480252928
1
1
1
1
1.0014257480252928
1.009972945911881
1.0268945766997353
1.050813413686349
1.076419298512211
1.1086788569874497
1.1479545719328954
1.1934748181220811
1.241057400964262
1.2483445285886947
1.2010506779735384
1.1558288319603376
1.1168300665276518
1.0847789639318766
1.0589809363408418
1.0347326790659606
1.0156927140665568
1.004029692500613
1.000002061481093
1
1
1.000002061481093
1.004029692500613
1.0156927140665568
1.0347326790659606
1.0589809363408413
1.0847789639318766
1.1168300665276518
1.1558288319603376
1.2010506779735384
1.2483445285886947
1.262792635865308
1.216060816817571
1.1711791820726802
1.1313599389116442
1.097166308251399
1.0691381885817974
1.044623901326915
1.0228274763548277
1.009302570524301
1.004029692500613
1.0014257480252928
1.0014257480252928
1.004029692500613
1.009302570524301
1.0228274763548275
1.044623901326915
1.0691381885817972
1.097166308251399
1.131359938911644
1.17117918207268
1.216060816817571
1.262792635865308
1.2821501163152145
1.2353442676028066
1.1891901217330383
1.1472027342765652
1.1106120128874595
1.0799666358468487
1.055750287047779
1.0361704851967102
1.0228274763548275
1.0156927140665568
1.009972945911881
1.009972945911881
1.0156927140665568
1.0228274763548275
1.0361704851967102
1.055750287047779
1.0799666358468487
1.1106120128874595
1.1472027342765652
1.189190121733038
1.2353442676028066
1.2821501163152145
1.302333764122333
1.2546588400155305
1.2080323847353958
1.1640070402844787
1.1259997467966374
1.094979022314817
1.0715518085478157
1.055750287047779
1.044623901326915
1.0347326790659606
1.0268945766997353
1.0268945766997353
1.0347326790659606
1.044623901326915
1.055750287047779
1.0715518085478155
1.094979022314817
1.1259997467966374
1.1640070402844784
1.2080323847353955
1.2546588400155307
1.302333764122333
1.3232135781550967
1.2740015162371319
1.2282772209296087
1.1856087764263767
1.1483166857158829
1.1179153994005677
1.094979022314817
1.0799666358468487
1.0691381885817972
1.058980936340842
1.050813413686349
1.050813413686349
1.0589809363408418
1.0691381885817972
1.0799666358468487
1.094979022314817
1.1179153994005677
1.1483166857158829
1.1856087764263765
1.2282772209296087
1.2740015162371319
1.3232135781550967
1.345431701963515
1.2962993376398886
1.2524927426743628
1.2134182099821318
1.1779336064354768
1.1483166857158829
1.1259997467966376
1.1106120128874595
1.097166308251399
1.0847789639318766
1.076419298512211
1.076419298512211
1.0847789639318766
1.097166308251399
1.1106120128874595
1.1259997467966374
1.1483166857158829
1.1779336064354768
1.2134182099821318
1.2524927426743628
1.2962993376398886
1.345431701963515
1.3731566508682773
1.325052714400811
1.282228838245066
1.2452298907763122
1.2134182099821318
1.1856087764263765
1.1640070402844787
1.1472027342765652
1.131359938911644
1.1168300665276518
1.1086788569874497
1.1086788569874497
1.1168300665276518
1.131359938911644
1.147202734276565
1.1640070402844784
1.1856087764263765
1.2134182099821318
1.2452298907763122
1.282228838245066
1.325052714400811
1.3731566508682773
1.406795116770132
1.359881615687727
1.3181897080359095
1.282228838245066
1.2524927426743628
1.2282772209296087
1.2080323847353958
1.189190121733038
1.17117918207268
1.1558288319603376
1.1479545719328954
1.1479545719328954
1.1558288319603376
1.17117918207268
1.189190121733038
1.2080323847353955
1.2282772209296087
1.2524927426743626
1.2822288382450657
1.3181897080359095
1.3598816156877267
1.406795116770132
1.4459344393443139
1.400332785804549
1.359881615687727
1.325052714400811
1.2962993376398886
1.2740015162371319
1.2546588400155305
1.2353442676028066
1.216060816817571
1.2010506779735384
1.1934748181220811
1.1934748181220811
1.2010506779735384
1.216060816817571
1.2353442676028066
1.2546588400155305
1.2740015162371319
1.2962993376398886
1.325052714400811
1.3598816156877267
1.4003327858045487
1.4459344393443139
1.490141233160395
1.4459344393443139
1.406795116770132
1.3731566508682775
1.345431701963515
1.3232135781550967
1.302333764122333
1.2821501163152145
1.262792635865308
1.2483445285886947
1.2410574009642623
1.241057400964262
1.2483445285886947
1.262792635865308
1.2821501163152145
1.302333764122333
1.3232135781550967
1.345431701963515
1.3731566508682773
1.406795116770132
1.4459344393443139
1.490141233160395
1.4229059360955598
1.3765416125541408
1.3353699520280844
1.2998844548785802
1.2705616367810102
1.2470102572253416
1.2248320870161116
1.2033492132287773
1.1827087043517315
1.167269763255705
1.1594732039343854
1.1594732039343854
1.167269763255705
1.1827087043517317
1.2033492132287773
1.2248320870161118
1.2470102572253416
1.27056163678101
1.29988445487858
1.3353699520280844
1.3765416125541408
1.4229059360955598
1.376541612554141
1.3285602429736965
1.2858531863695255
1.2489616103596446
1.2184138791793258
1.194663246101474
1.1742286822822372
1.1545795998462896
1.1352650274335652
1.1192005781352092
1.111066759708446
1.111066759708446
1.1192005781352092
1.1352650274335654
1.1545795998462893
1.1742286822822372
1.1946632461014737
1.2184138791793258
1.2489616103596444
1.2858531863695253
1.3285602429736962
1.3765416125541408
1.3353699520280844
1.2858531863695255
1.2416781042536733
1.203433089888462
1.1716989710088281
1.1470022055502125
1.1272646695887776
1.1079500971760536
1.0887262715005277
1.0721961138363667
1.0637029270226936
1.0637029270226936
1.0721961138363667
1.0887262715005277
1.1079500971760534
1.1272646695887776
1.1470022055502125
1.1716989710088281
1.2034330898884618
1.241678104253673
1.2858531863695255
1.3353699520280844
1.2998844548785802
1.2489616103596446
1.203433089888462
1.1639320809626246
1.1310759834771182
1.1036469635919124
1.0810072190169873
1.0628914955284177
1.045772216646229
1.0300357349311566
1.0211919631812654
1.0211919631812654
1.0300357349311566
1.045772216646229
1.0628914955284174
1.0810072190169873
1.103646963591912
1.131075983477118
1.1639320809626246
1.2034330898884618
1.2489616103596444
1.2998844548785802
1.2705616367810102
1.2184138791793258
1.1716989710088281
1.1310759834771182
1.0953976586959124
1.0640937122399128
1.0399709839803708
1.0232904088795822
1.0086813796720013
0.9951932567718315
0.986074400815947
0.986074400815947
0.9951932567718315
1.0086813796720013
1.0232904088795822
1.0399709839803706
1.0640937122399128
1.0953976586959122
1.1310759834771178
1.171698971008828
1.2184138791793258
1.27056163678101
1.2470102572253416
1.1946632461014737
1.1470022055502125
1.1036469635919122
1.0640937122399128
1.0312124213526228
1.0063017822922313
0.9899455299547387
0.9781209966149258
0.9675121335889658
0.9589240451521507
0.9589240451521507
0.9675121335889658
0.9781209966149258
0.9899455299547387
1.0063017822922313
1.0312124213526228
1.0640937122399128
1.103646963591912
1.1470022055502123
1.1946632461014737
1.2470102572253419
1.2248320870161118
1.1742286822822372
1.127264669588778
1.0810072190169873
1.0399709839803708
1.0063017822922313
0.9807586329658808
0.9639625539660339
0.953155098575039
0.9430031417589587
0.9344017208694122
0.9344017208694122
0.9430031417589587
0.953155098575039
0.9639625539660339
0.9807586329658808
1.0063017822922313
1.0399709839803708
1.0810072190169873
1.1272646695887776
1.1742286822822372
1.2248320870161118
1.2033492132287773
1.1545795998462893
1.1079500971760536
1.0628914955284174
1.0232904088795822
0.9899455299547387
0.9639625539660339
0.9441775493596561
0.9299301859251454
0.9220768914338319
0.9157726004758567
0.9157726004758567
0.9220768914338319
0.9299301859251454
0.9441775493596561
0.9639625539660337
0.9899455299547387
1.0232904088795822
1.0628914955284174
1.1079500971760536
1.154579599846289
1.2033492132287773
1.1827087043517317
1.1352650274335652
1.0887262715005277
1.045772216646229
1.0086813796720013
0.9781209966149258
0.953155098575039
0.9299301859251454
0.9150332142470848
0.909213796491928
0.9063374830141404
0.9063374830141404
0.909213796491928
0.9150332142470848
0.9299301859251454
0.9531550985750389
0.9781209966149258
1.0086813796720013
1.045772216646229
1.0887262715005277
1.1352650274335652
1.1827087043517315
1.167269763255705
1.1192005781352092
1.0721961138363667
1.0300357349311566
0.9951932567718315
0.9675121335889655
0.9430031417589589
0.9220768914338319
0.909213796491928
0.9047641832404869
0.9047619047619048
0.9047619047619048
0.9047641832404869
0.909213796491928
0.9220768914338319
0.9430031417589586
0.9675121335889658
0.9951932567718315
1.0300357349311566
1.0721961138363665
1.1192005781352095
1.167269763255705
1.1594732039343854
1.111066759708446
1.0637029270226936
1.0211919631812654
0.986074400815947
0.9589240451521507
0.9344017208694122
0.9157726004758567
0.9063374830141404
0.9047619047619048
0.9047619047619048
0.9047619047619048
0.9047619047619048
0.9063374830141404
0.9157726004758566
0.9344017208694121
0.9589240451521506
0.986074400815947
1.0211919631812654
1.0637029270226934
1.111066759708446
1.1594732039343854
1.1594732039343854
1.111066759708446
1.0637029270226936
1.0211919631812654
0.986074400815947
0.9589240451521507
0.9344017208694122
0.9157726004758566
0.9063374830141404
0.9047619047619048
0.9047619047619048
0.9047619047619048
0.9047619047619048
0.9063374830141404
0.9157726004758566
0.9344017208694121
0.9589240451521506
0.986074400815947
1.0211919631812654
1.0637029270226934
1.111066759708446
1.1594732039343854
1.167269763255705
1.1192005781352092
1.0721961138363667
1.0300357349311566
0.9951932567718315
0.9675121335889658
0.9430031417589587
0.9220768914338319
0.909213796491928
0.9047641832404869
0.9047619047619048
0.9047619047619048
0.9047641832404869
0.909213796491928
0.9220768914338319
0.9430031417589587
0.9675121335889658
0.9951932567718315
1.0300357349311566
1.0721961138363665
1.1192005781352095
1.167269763255705
1.1827087043517315
1.1352650274335652
1.0887262715005277
1.045772216646229
1.0086813796720013
0.9781209966149258
0.953155098575039
0.9299301859251454
0.9150332142470848
0.909213796491928
0.9063374830141404
0.9063374830141404
0.909213796491928
0.9150332142470848
0.9299301859251454
0.953155098575039
0.9781209966149258
1.0086813796720013
1.045772216646229
1.0887262715005277
1.1352650274335652
1.1827087043517317
1.2033492132287773
1.1545795998462893
1.1079500971760534
1.0628914955284177
1.0232904088795822
0.9899455299547387
0.9639625539660339
0.9441775493596561
0.9299301859251454
0.9220768914338319
0.9157726004758566
0.9157726004758566
0.9220768914338319
0.9299301859251454
0.9441775493596561
0.9639625539660338
0.9899455299547385
1.0232904088795822
1.0628914955284174
1.1079500971760532
1.1545795998462893
1.2033492132287773
1.2248320870161116
1.1742286822822372
1.1272646695887776
1.0810072190169873
1.0399709839803706
1.0063017822922313
0.9807586329658807
0.9639625539660337
0.953155098575039
0.9430031417589587
0.9344017208694121
0.9344017208694121
0.9430031417589587
0.953155098575039
0.9639625539660338
0.9807586329658807
1.0063017822922313
1.0399709839803706
1.081007219016987
1.1272646695887776
1.1742286822822372
1.2248320870161118
1.2470102572253416
1.194663246101474
1.1470022055502125
1.1036469635919122
1.0640937122399128
1.0312124213526228
1.0063017822922313
0.9899455299547387
0.9781209966149258
0.9675121335889658
0.9589240451521506
0.9589240451521506
0.9675121335889657
0.9781209966149258
0.9899455299547387
1.0063017822922313
1.0312124213526228
1.0640937122399128
1.1036469635919122
1.1470022055502123
1.1946632461014737
1.2470102572253416
1.2705616367810102
1.2184138791793258
1.1716989710088281
1.131075983477118
1.0953976586959124
1.0640937122399128
1.0399709839803708
1.0232904088795822
1.0086813796720013
0.9951932567718315
0.986074400815947
0.986074400815947
0.9951932567718315
1.0086813796720013
1.0232904088795822
1.0399709839803706
1.0640937122399128
1.0953976586959124
1.131075983477118
1.1716989710088281
1.2184138791793258
1.2705616367810102
1.2998844548785802
1.2489616103596446
1.203433089888462
1.1639320809626246
1.131075983477118
1.1036469635919122
1.081007219016987
1.0628914955284174
1.045772216646229
1.0300357349311566
1.0211919631812654
1.0211919631812654
1.0300357349311566
1.045772216646229
1.0628914955284174
1.081007219016987
1.1036469635919122
1.131075983477118
1.1639320809626246
1.2034330898884618
1.2489616103596446
1.2998844548785802
1.3353699520280844
1.2858531863695255
1.241678104253673
1.2034330898884618
1.1716989710088281
1.1470022055502123
1.1272646695887776
1.1079500971760532
1.0887262715005277
1.0721961138363665
1.0637029270226934
1.0637029270226934
1.0721961138363665
1.0887262715005277
1.1079500971760534
1.1272646695887776
1.1470022055502125
1.1716989710088281
1.2034330898884618
1.241678104253673
1.2858531863695253
1.3353699520280844
1.3765416125541408
1.3285602429736965
1.2858531863695255
1.2489616103596446
1.2184138791793258
1.1946632461014737
1.1742286822822372
1.154579599846289
1.1352650274335652
1.1192005781352092
1.111066759708446
1.111066759708446
1.1192005781352092
1.1352650274335654
1.1545795998462893
1.174228682282237
1.1946632461014737
1.2184138791793258
1.2489616103596444
1.2858531863695253
1.3285602429736965
1.3765416125541408
1.4229059360955598
1.376541612554141
1.3353699520280844
1.2998844548785802
1.2705616367810102
1.2470102572253416
1.2248320870161118
1.2033492132287773
1.1827087043517315
1.167269763255705
1.1594732039343854
1.1594732039343854
1.167269763255705
1.1827087043517315
1.2033492132287773
1.2248320870161116
1.2470102572253416
1.2705616367810102
1.2998844548785802
1.3353699520280844
1.3765416125541408
1.4229059360955598
1.3590225534391773
1.3103998660231595
1.2670808603083896
1.229626200849406
1.1985857794250687
1.1735908909861106
1.1499976691996399
1.1270893162294982
1.105025283479845
1.0884850472061571
1.0801199509416668
1.0801199509416668
1.0884850472061571
1.105025283479845
1.1270893162294982
1.1499976691996399
1.1735908909861106
1.198585779425069
1.2296262008494059
1.2670808603083896
1.3103998660231595
1.3590225534391773
1.3103998660231595
1.2599021061140774
1.2147836904885667
1.1756641110166275
1.1431593846691601
1.1178109273781818
1.0959443398615822
1.0748689923047603
1.0546323212366027
1.0374889635746856
1.0287092689239823
1.0287092689239823
1.0374889635746856
1.0546323212366027
1.0748689923047603
1.0959443398615822
1.1178109273781818
1.1431593846691601
1.1756641110166273
1.2147836904885665
1.2599021061140772
1.3103998660231595
1.2670808603083896
1.2147836904885667
1.167923590121955
1.127178867624323
1.0932334958477568
1.0667367729844714
1.04650719764309
1.0271854294195366
1.0078708570068124
0.9903063198398386
0.9811044885971951
0.9811044885971951
0.9903063198398386
1.0078708570068124
1.0271854294195366
1.04650719764309
1.0667367729844714
1.0932334958477568
1.1271788676243228
1.1679235901219547
1.2147836904885667
1.2670808603083896
1.229626200849406
1.1756641110166273
1.127178867624323
1.0849050128349236
1.0495933325336066
1.0218344234829437
0.999870789578371
0.9805830605159389
0.962000174850991
0.9448695267280756
0.9352207402373925
0.9352207402373925
0.9448695267280756
0.962000174850991
0.9805830605159389
0.9998707895783712
1.0218344234829435
1.0495933325336066
1.0849050128349236
1.1271788676243228
1.1756641110166273
1.229626200849406
1.198585779425069
1.1431593846691601
1.0932334958477568
1.0495933325336066
1.0129190488116802
0.9815601951555255
0.955690564369697
0.9375116363059781
0.9215437770400179
0.9067604014447775
0.8967427341488184
0.8967427341488184
0.9067604014447775
0.9215437770400179
0.9375116363059781
0.955690564369697
0.9815601951555256