# vtk DataFile Version 4.1
Header:
ASCII

DATASET UNSTRUCTURED_GRID
POINTS 10648 double
-1 -1 -1
-0.9047619047619048 -1 -1
-0.8095238095238095 -1 -1
-0.7142857142857143 -1 -1
-0.6190476190476191 -1 -1
-0.5238095238095238 -1 -1
-0.4285714285714286 -1 -1
-0.33333333333333337 -1 -1
-0.23809523809523814 -1 -1
-0.1428571428571429 -1 -1
-0.04761904761904767 -1 -1
0.04761904761904745 -1 -1
0.1428571428571428 -1 -1
0.23809523809523814 -1 -1
0.33333333333333326 -1 -1
0.4285714285714284 -1 -1
0.5238095238095237 -1 -1
0.6190476190476191 -1 -1
0.7142857142857142 -1 -1
0.8095238095238093 -1 -1
0.9047619047619047 -1 -1
1 -1 -1
-1 -0.9047619047619048 -1
-0.9047619047619048 -0.9047619047619048 -1
-0.8095238095238095 -0.9047619047619048 -1
-0.7142857142857143 -0.9047619047619048 -1
-0.6190476190476191 -0.9047619047619048 -1
-0.5238095238095238 -0.9047619047619048 -1
-0.4285714285714286 -0.9047619047619048 -1
-0.33333333333333337 -0.9047619047619048 -1
-0.23809523809523814 -0.9047619047619048 -1
-0.1428571428571429 -0.9047619047619048 -1
-0.04761904761904767 -0.9047619047619048 -1
0.04761904761904745 -0.9047619047619048 -1
0.1428571428571428 -0.9047619047619048 -1
0.23809523809523814 -0.9047619047619048 -1
0.33333333333333326 -0.9047619047619048 -1
0.4285714285714284 -0.9047619047619048 -1
0.5238095238095237 -0.9047619047619048 -1
0.6190476190476191 -0.9047619047619048 -1
0.7142857142857142 -0.9047619047619048 -1
0.8095238095238093 -0.9047619047619048 -1
0.9047619047619047 -0.9047619047619048 -1
1 -0.9047619047619048 -1
-1 -0.8095238095238095 -1
-0.9047619047619048 -0.8095238095238095 -1
-0.8095238095238095 -0.8095238095238095 -1
-0.7142857142857143 -0.8095238095238095 -1
-0.6190476190476191 -0.8095238095238095 -1
-0.5238095238095238 -0.8095238095238095 -1
-0.4285714285714286 -0.8095238095238095 -1
-0.33333333333333337 -0.8095238095238095 -1
-0.23809523809523814 -0.8095238095238095 -1
-0.1428571428571429 -0.8095238095238095 -1
-0.04761904761904767 -0.8095238095238095 -1
0.04761904761904745 -0.8095238095238095 -1
0.1428571428571428 -0.8095238095238095 -1
0.23809523809523814 -0.8095238095238095 -1
0.33333333333333326 -0.8095238095238095 -1
0.4285714285714284 -0.8095238095238095 -1
0.5238095238095237 -0.8095238095238095 -1
0.6190476190476191 -0.8095238095238095 -1
0.7142857142857142 -0.8095238095238095 -1
0.8095238095238093 -0.8095238095238095 -1
0.9047619047619047 -0.8095238095238095 -1
1 -0.8095238095238095 -1
-1 -0.7142857142857143 -1
-0.9047619047619048 -0.7142857142857143 -1
-0.8095238095238095 -0.7142857142857143 -1
-0.7142857142857143 -0.7142857142857143 -1
-0.6190476190476191 -0.7142857142857143 -1
-0.5238095238095238 -0.7142857142857143 -1
-0.4285714285714286 -0.7142857142857143 -1
-0.33333333333333337 -0.7142857142857143 -1
-0.23809523809523814 -0.7142857142857143 -1
-0.1428571428571429 -0.7142857142857143 -1
-0.04761904761904767 -0.7142857142857143 -1
0.04761904761904745 -0.7142857142857143 -1
0.1428571428571428 -0.7142857142857143 -1
0.23809523809523814 -0.7142857142857143 -1
0.33333333333333326 -0.7142857142857143 -1
0.4285714285714284 -0.7142857142857143 -1
0.5238095238095237 -0.7142857142857143 -1
0.6190476190476191 -0.7142857142857143 -1
0.7142857142857142 -0.7142857142857143 -1
0.8095238095238093 -0.7142857142857143 -1
0.9047619047619047 -0.7142857142857143 -1
1 -0.7142857142857143 -1
-1 -0.6190476190476191 -1
-0.9047619047619048 -0.6190476190476191 -1
-0.8095238095238095 -0.6190476190476191 -1
-0.7142857142857143 -0.6190476190476191 -1
-0.6190476190476191 -0.6190476190476191 -1
-0.5238095238095238 -0.6190476190476191 -1
-0.4285714285714286 -0.6190476190476191 -1
-0.33333333333333337 -0.6190476190476191 -1
-0.23809523809523814 -0.6190476190476191 -1
-0.1428571428571429 -0.6190476190476191 -1
-0.04761904761904767 -0.6190476190476191 -1
0.04761904761904745 -0.6190476190476191 -1
0.1428571428571428 -0.6190476190476191 -1
0.23809523809523814 -0.6190476190476191 -1
0.33333333333333326 -0.6190476190476191 -1
0.4285714285714284 -0.6190476190476191 -1
0.5238095238095237 -0.6190476190476191 -1
0.6190476190476191 -0.6190476190476191 -1
0.7142857142857142 -0.6190476190476191 -1
0.8095238095238093 -0.6190476190476191 -1
0.9047619047619047 -0.6190476190476191 -1
1 -0.6190476190476191 -1
-1 -0.5238095238095238 -1
-0.9047619047619048 -0.5238095238095238 -1
-0.8095238095238095 -0.5238095238095238 -1
-0.7142857142857143 -0.5238095238095238 -1
-0.6190476190476191 -0.5238095238095238 -1
-0.5238095238095238 -0.5238095238095238 -1
-0.4285714285714286 -0.5238095238095238 -1
-0.33333333333333337 -0.5238095238095238 -1
-0.23809523809523814 -0.5238095238095238 -1
-0.1428571428571429 -0.5238095238095238 -1
-0.04761904761904767 -0.5238095238095238 -1
0.04761904761904745 -0.5238095238095238 -1
0.1428571428571428 -0.5238095238095238 -1
0.23809523809523814 -0.5238095238095238 -1
0.33333333333333326 -0.5238095238095238 -1
0.4285714285714284 -0.5238095238095238 -1
0.5238095238095237 -0.5238095238095238 -1
0.6190476190476191 -0.5238095238095238 -1
0.7142857142857142 -0.5238095238095238 -1
0.8095238095238093 -0.5238095238095238 -1
0.9047619047619047 -0.5238095238095238 -1
1 -0.5238095238095238 -1
-1 -0.4285714285714286 -1
-0.9047619047619048 -0.4285714285714286 -1
-0.8095238095238095 -0.4285714285714286 -1
-0.7142857142857143 -0.4285714285714286 -1
-0.6190476190476191 -0.4285714285714286 -1
-0.5238095238095238 -0.4285714285714286 -1
-0.4285714285714286 -0.4285714285714286 -1
-0.33333333333333337 -0.4285714285714286 -1
-0.23809523809523814 -0.4285714285714286 -1
-0.1428571428571429 -0.4285714285714286 -1
-0.04761904761904767 -0.4285714285714286 -1
0.04761904761904745 -0.4285714285714286 -1
0.1428571428571428 -0.4285714285714286 -1
0.23809523809523814 -0.4285714285714286 -1
0.33333333333333326 -0.4285714285714286 -1
0.4285714285714284 -0.4285714285714286 -1
0.5238095238095237 -0.4285714285714286 -1
0.6190476190476191 -0.4285714285714286 -1
0.7142857142857142 -0.4285714285714286 -1
0.8095238095238093 -0.4285714285714286 -1
0.9047619047619047 -0.4285714285714286 -1
1 -0.4285714285714286 -1
-1 -0.33333333333333337 -1
-0.9047619047619048 -0.33333333333333337 -1
-0.8095238095238095 -0.33333333333333337 -1
-0.7142857142857143 -0.33333333333333337 -1
-0.6190476190476191 -0.33333333333333337 -1
-0.5238095238095238 -0.33333333333333337 -1
-0.4285714285714286 -0.33333333333333337 -1
-0.33333333333333337 -0.33333333333333337 -1
-0.23809523809523814 -0.33333333333333337 -1
-0.1428571428571429 -0.33333333333333337 -1
-0.04761904761904767 -0.33333333333333337 -1
0.04761904761904745 -0.33333333333333337 -1
0.1428571428571428 -0.33333333333333337 -1
0.23809523809523814 -0.33333333333333337 -1
0.33333333333333326 -0.33333333333333337 -1
0.4285714285714284 -0.33333333333333337 -1
0.5238095238095237 -0.33333333333333337 -1
0.6190476190476191 -0.33333333333333337 -1
0.7142857142857142 -0.33333333333333337 -1
0.8095238095238093 -0.33333333333333337 -1
0.9047619047619047 -0.33333333333333337 -1
1 -0.33333333333333337 -1
-1 -0.23809523809523814 -1
-0.9047619047619048 -0.23809523809523814 -1
-0.8095238095238095 -0.23809523809523814 -1
-0.7142857142857143 -0.23809523809523814 -1
-0.6190476190476191 -0.23809523809523814 -1
-0.5238095238095238 -0.23809523809523814 -1
-0.4285714285714286 -0.23809523809523814 -1
-0.33333333333333337 -0.23809523809523814 -1
-0.23809523809523814 -0.23809523809523814 -1
-0.1428571428571429 -0.23809523809523814 -1
-0.04761904761904767 -0.23809523809523814 -1
0.04761904761904745 -0.23809523809523814 -1
0.1428571428571428 -0.23809523809523814 -1
0.23809523809523814 -0.23809523809523814 -1
0.33333333333333326 -0.23809523809523814 -1
0.4285714285714284 -0.23809523809523814 -1
0.5238095238095237 -0.23809523809523814 -1
0.6190476190476191 -0.23809523809523814 -1
0.7142857142857142 -0.23809523809523814 -1
0.8095238095238093 -0.23809523809523814 -1
0.9047619047619047 -0.23809523809523814 -1
1 -0.23809523809523814 -1
-1 -0.1428571428571429 -1
-0.9047619047619048 -0.1428571428571429 -1
-0.8095238095238095 -0.1428571428571429 -1
-0.7142857142857143 -0.1428571428571429 -1
-0.6190476190476191 -0.1428571428571429 -1
-0.5238095238095238 -0.1428571428571429 -1
-0.4285714285714286 -0.1428571428571429 -1
-0.33333333333333337 -0.1428571428571429 -1
-0.23809523809523814 -0.1428571428571429 -1
-0.1428571428571429 -0.1428571428571429 -1
-0.04761904761904767 -0.1428571428571429 -1
0.04761904761904745 -0.1428571428571429 -1
0.1428571428571428 -0.1428571428571429 -1
0.23809523809523814 -0.1428571428571429 -1
0.33333333333333326 -0.1428571428571429 -1
0.4285714285714284 -0.1428571428571429 -1
0.5238095238095237 -0.1428571428571429 -1
0.6190476190476191 -0.1428571428571429 -1
0.7142857142857142 -0.1428571428571429 -1
0.8095238095238093 -0.1428571428571429 -1
0.9047619047619047 -0.1428571428571429 -1
1 -0.1428571428571429 -1
-1 -0.04761904761904767 -1
-0.9047619047619048 -0.04761904761904767 -1
-0.8095238095238095 -0.04761904761904767 -1
-0.7142857142857143 -0.04761904761904767 -1
-0.6190476190476191 -0.04761904761904767 -1
-0.5238095238095238 -0.04761904761904767 -1
-0.4285714285714286 -0.04761904761904767 -1
-0.33333333333333337 -0.04761904761904767 -1
-0.23809523809523814 -0.04761904761904767 -1
-0.1428571428571429 -0.04761904761904767 -1
-0.04761904761904767 -0.04761904761904767 -1
0.04761904761904745 -0.04761904761904767 -1
0.1428571428571428 -0.04761904761904767 -1
0.23809523809523814 -0.04761904761904767 -1
0.33333333333333326 -0.04761904761904767 -1
0.4285714285714284 -0.04761904761904767 -1
0.5238095238095237 -0.04761904761904767 -1
0.6190476190476191 -0.04761904761904767 -1
0.7142857142857142 -0.04761904761904767 -1
0.8095238095238093 -0.04761904761904767 -1
0.9047619047619047 -0.04761904761904767 -1
1 -0.04761904761904767 -1
-1 0.04761904761904745 -1
-0.9047619047619048 0.04761904761904745 -1
-0.8095238095238095 0.04761904761904745 -1
-0.7142857142857143 0.04761904761904745 -1
-0.6190476190476191 0.04761904761904745 -1
-0.5238095238095238 0.04761904761904745 -1
[...]
POINT_DATA 10648
SCALARS phi1 double 1
LOOKUP_TABLE default
1.5170729502452875
1.469711402831426
1.4271417128052335
1.3898042735629197
1.3581306854526243
1.332468605460822
1.3095111782121376
1.2871764040027363
1.2664537177559556
1.2520478585419805
1.2447824109097936
1.2447824109097936
1.2520478585419805
1.2664537177559556
1.2871764040027363
1.3095111782121376
1.332468605460822
1.3581306854526243
1.3898042735629197
1.4271417128052335
1.469711402831426
1.5170729502452878
1.469711402831426
1.4207719306276765
1.3766897761207617
1.3379451371639017
1.3050134980201515
1.2783441866485774
1.2567175113560545
1.2360243280200305
1.2161385401297504
1.2011293725700818
1.193554012217896
1.193554012217896
1.2011293725700818
1.2161385401297504
1.2360243280200305
1.2567175113560545
1.2783441866485774
1.3050134980201515
1.3379451371639017
1.3766897761207617
1.4207719306276765
1.4697114028314262
1.4271417128052335
1.3766897761207617
1.3311486019567353
1.2910379742193758
1.2568779140516115
1.2291646433062378
1.2080323847353958
1.1891901217330383
1.1711791820726802
1.1558288319603376
1.1479545719328954
1.1479545719328954
1.1558288319603376
1.1711791820726802
1.1891901217330383
1.2080323847353958
1.2291646433062378
1.2568779140516115
1.2910379742193758
1.3311486019567351
1.3766897761207617
1.4271417128052337
1.3898042735629197
1.3379451371639017
1.291037974219376
1.2496405488225681
1.2143164913711042
1.1856087764263767
1.1640070402844787
1.1472027342765652
1.1313599389116442
1.1168300665276518
1.1086788569874497
1.1086788569874497
1.1168300665276518
1.1313599389116442
1.1472027342765652
1.1640070402844787
1.1856087764263767
1.2143164913711042
1.2496405488225681
1.2910379742193758
1.3379451371639017
1.3898042735629197
1.3581306854526243
1.3050134980201515
1.2568779140516115
1.2143164913711042
1.1779336064354768
1.1483166857158829
1.1259997467966376
1.1106120128874595
1.097166308251399
1.0847789639318768
1.076419298512211
1.076419298512211
1.0847789639318766
1.097166308251399
1.1106120128874595
1.1259997467966374
1.1483166857158829
1.1779336064354768
1.2143164913711042
1.2568779140516113
1.3050134980201515
1.3581306854526243
1.3324686054608221
1.2783441866485774
1.2291646433062378
1.1856087764263765
1.1483166857158829
1.1179153994005677
1.0949790223148173
1.0799666358468487
1.0691381885817974
1.058980936340842
1.050813413686349
1.050813413686349
1.058980936340842
1.0691381885817974
1.0799666358468487
1.094979022314817
1.1179153994005677
1.1483166857158829
1.1856087764263765
1.2291646433062378
1.2783441866485774
1.332468605460822
1.3095111782121376
1.2567175113560545
1.2080323847353958
1.1640070402844787
1.1259997467966374
1.0949790223148173
1.0715518085478157
1.055750287047779
1.044623901326915
1.0347326790659606
1.0268945766997355
1.0268945766997353
1.0347326790659606
1.044623901326915
1.055750287047779
1.0715518085478157
1.0949790223148173
1.1259997467966376
1.1640070402844787
1.2080323847353958
1.2567175113560545
1.3095111782121376
1.2871764040027367
1.2360243280200305
1.1891901217330383
1.1472027342765652
1.1106120128874595
1.0799666358468487
1.055750287047779
1.0361704851967102
1.0228274763548277
1.0156927140665568
1.009972945911881
1.009972945911881
1.0156927140665568
1.0228274763548277
1.0361704851967102
1.055750287047779
1.0799666358468487
1.1106120128874595
1.1472027342765652
1.1891901217330383
1.2360243280200305
1.2871764040027367
1.2664537177559556
1.2161385401297504
1.1711791820726802
1.1313599389116442
1.097166308251399
1.0691381885817974
1.0446239013269152
1.0228274763548277
1.009302570524301
1.004029692500613
1.0014257480252928
1.0014257480252928
1.004029692500613
1.009302570524301
1.0228274763548275
1.044623901326915
1.0691381885817972
1.097166308251399
1.131359938911644
1.17117918207268
1.2161385401297502
1.2664537177559556
1.2520478585419805
1.2011293725700818
1.1558288319603376
1.1168300665276518
1.0847789639318766
1.058980936340842
1.0347326790659606
1.0156927140665568
1.004029692500613
1.000002061481093
1
1
1.000002061481093
1.004029692500613
1.0156927140665568
1.0347326790659606
1.0589809363408416
1.0847789639318768
1.1168300665276518
1.1558288319603376
1.2011293725700818
1.2520478585419805
1.2447824109097936
1.193554012217896
1.1479545719328954
1.1086788569874497
1.076419298512211
1.050813413686349
1.0268945766997355
1.009972945911881
1.0014257480252928
1
1
1
1
1.0014257480252928
1.009972945911881
1.0268945766997353
1.050813413686349
1.076419298512211
1.1086788569874497
1.1479545719328954
1.1935540122178958
1.2447824109097936
1.2447824109097936
1.193554012217896
1.1479545719328954
1.1086788569874497
1.076419298512211
1.050813413686349
1.0268945766997353
1.009972945911881
1.0014257480252928
1
1
1
1
1.0014257480252928
1.009972945911881
1.0268945766997353
1.050813413686349
1.076419298512211
1.1086788569874497
1.1479545719328954
1.1935540122178958
1.2447824109097936
1.2520478585419805
1.2011293725700818
1.1558288319603376
1.1168300665276518
1.0847789639318766
1.0589809363408418
1.0347326790659606
1.0156927140665568
1.004029692500613
1.000002061481093
1
1
1.000002061481093
1.004029692500613
1.0156927140665568
1.0347326790659606
1.0589809363408413
1.0847789639318766
1.1168300665276518
1.1558288319603376
1.2011293725700818
1.2520478585419805
1.2664537177559556
1.2161385401297504
1.1711791820726802
1.1313599389116442
1.097166308251399
1.0691381885817974
1.044623901326915
1.0228274763548277
1.009302570524301
1.004029692500613
1.0014257480252928
1.0014257480252928
1.004029692500613
1.009302570524301
1.0228274763548275
1.044623901326915
1.0691381885817972
1.097166308251399
1.131359938911644
1.17117918207268
1.2161385401297502
1.2664537177559556
1.2871764040027363
1.2360243280200305
1.1891901217330383
1.1472027342765652
1.1106120128874595
1.0799666358468487
1.055750287047779
1.0361704851967102
1.0228274763548275
1.0156927140665568
1.009972945911881
1.009972945911881
1.0156927140665568
1.0228274763548275
1.0361704851967102
1.055750287047779
1.0799666358468487
1.1106120128874595
1.1472027342765652
1.189190121733038
1.2360243280200305
1.2871764040027363
1.3095111782121376
1.2567175113560545
1.2080323847353958
1.1640070402844787
1.1259997467966374
1.094979022314817
1.0715518085478157
1.055750287047779
1.044623901326915
1.0347326790659606
1.0268945766997353
1.0268945766997353
1.0347326790659606
1.044623901326915
1.055750287047779
1.0715518085478155
1.094979022314817
1.1259997467966374
1.1640070402844784
1.2080323847353955
1.2567175113560543
1.3095111782121376
1.332468605460822
1.2783441866485774
1.2291646433062378
1.1856087764263767
1.1483166857158829
1.1179153994005677
1.094979022314817
1.0799666358468487
1.0691381885817972
1.058980936340842
1.050813413686349
1.050813413686349
1.0589809363408418
1.0691381885817972
1.0799666358468487
1.094979022314817
1.1179153994005677
1.1483166857158829
1.1856087764263765
1.2291646433062378
1.2783441866485774
1.332468605460822
1.3581306854526243
1.3050134980201515
1.2568779140516115
1.2143164913711042
1.1779336064354768
1.1483166857158829
1.1259997467966376
1.1106120128874595
1.097166308251399
1.0847789639318766
1.076419298512211
1.076419298512211
1.0847789639318766
1.097166308251399
1.1106120128874595
1.1259997467966374
1.1483166857158829
1.1779336064354768
1.2143164913711042
1.2568779140516113
1.3050134980201515
1.3581306854526243
1.3898042735629197
1.3379451371639017
1.2910379742193758
1.249640548822568
1.2143164913711042
1.1856087764263765
1.1640070402844787
1.1472027342765652
1.131359938911644
1.1168300665276518
1.1086788569874497
1.1086788569874497
1.1168300665276518
1.131359938911644
1.147202734276565
1.1640070402844784
1.1856087764263765
1.2143164913711042
1.249640548822568
1.2910379742193758
1.3379451371639017
1.3898042735629197
1.4271417128052335
1.3766897761207617
1.3311486019567351
1.2910379742193758
1.2568779140516113
1.2291646433062378
1.2080323847353958
1.189190121733038
1.17117918207268
1.1558288319603376
1.1479545719328954
1.1479545719328954
1.1558288319603376
1.17117918207268
1.189190121733038
1.2080323847353955
1.2291646433062378
1.2568779140516113
1.2910379742193758
1.3311486019567351
1.3766897761207615
1.4271417128052335
1.4697114028314258
1.4207719306276765
1.3766897761207617
1.3379451371639017
1.3050134980201515
1.2783441866485774
1.2567175113560543
1.2360243280200305
1.2161385401297502
1.2011293725700818
1.1935540122178958
1.1935540122178958
1.2011293725700818
1.2161385401297502
1.2360243280200305
1.2567175113560543
1.2783441866485774
1.3050134980201515
1.3379451371639017
1.3766897761207615
1.4207719306276763
1.4697114028314258
1.5170729502452875
1.469711402831426
1.4271417128052335
1.3898042735629197
1.3581306854526243
1.332468605460822
1.3095111782121376
1.2871764040027363
1.2664537177559556
1.2520478585419805
1.2447824109097936
1.2447824109097936
1.2520478585419805
1.2664537177559556
1.2871764040027363
1.3095111782121376
1.332468605460822
1.3581306854526243
1.3898042735629197
1.4271417128052335
1.4697114028314258
1.5170729502452875
1.4543639689228243
1.4048899691248873
1.3602932353590769
1.3210678016471236
1.2877046153924523
1.2606096946611651
1.2363186254350247
1.2126365130394288
1.1906171664111391
1.175282118393098
1.1675390649761603
1.1675390649761603
1.175282118393098
1.1906171664111391
1.2126365130394288
1.2363186254350247
1.2606096946611651
1.2877046153924523
1.3210678016471236
1.3602932353590769
1.4048899691248873
1.4543639689228243
1.4048899691248873
1.3536089156748723
1.3072639203353094
1.2663970182354114
1.2315536722976392
1.2032572780886146
1.180255532113264
1.1581970286580676
1.1369508197472435
1.1208817901034913
1.1127602607104758
1.1127602607104758
1.1208817901034913
1.1369508197472435
1.1581970286580676
1.1802555321132637
1.2032572780886146
1.2315536722976392
1.2663970182354114
1.3072639203353091
1.3536089156748723
1.4048899691248873
1.3602932353590769
1.3072639203353091
1.2592143654780863
1.2167346746976018
1.1804263249206781
1.1508735543443336
1.1282758795190544
1.1080782298025924
1.0887262715005277
1.0721961138363667
1.0637029270226936
1.0637029270226936
1.0721961138363667
1.0887262715005277
1.1080782298025924
1.1282758795190544
1.1508735543443336
1.1804263249206783
1.2167346746976018
1.2592143654780863
1.3072639203353091
1.3602932353590769
1.3210678016471236
1.2663970182354114
1.2167346746976018
1.172717237443271
1.1350016559242713
1.1042338468251454
1.0810072190169873
1.0628914955284177
1.045772216646229
1.0300357349311566
1.0211919631812654
1.0211919631812654
1.0300357349311566
1.045772216646229
1.0628914955284174
1.0810072190169873
1.1042338468251454
1.1350016559242713
1.172717237443271
1.2167346746976018
1.2663970182354114
1.3210678016471236
1.2877046153924523
1.2315536722976392
1.1804263249206781
1.135001655924271
1.0959889592989054
1.0640937122399128
1.0399709839803708
1.0232904088795822
1.0086813796720013
0.9951932567718315
0.986074400815947
0.986074400815947
0.9951932567718315
1.0086813796720013
1.0232904088795822
1.0399709839803706
1.0640937122399128
1.0959889592989054
1.135001655924271
1.1804263249206781
1.2315536722976392
1.2877046153924523
1.2606096946611651
1.2032572780886146
1.1508735543443336
1.1042338468251454
1.0640937122399128
1.0312124213526228
1.0063017822922313
0.9899455299547387
0.9781209966149258
0.9675121335889658
0.9589240451521507
0.9589240451521507
0.9675121335889658
0.9781209966149258
0.9899455299547387
1.0063017822922313
1.0312124213526228
1.0640937122399128
1.1042338468251454
1.1508735543443334
1.2032572780886146
1.2606096946611651
1.2363186254350247
1.1802555321132637
1.1282758795190544
1.0810072190169873
1.0399709839803708
1.0063017822922313
0.9807586329658808
0.9639625539660339
0.953155098575039
0.9430031417589587
0.9344017208694122
0.9344017208694122
0.9430031417589587
0.953155098575039
0.9639625539660339
0.9807586329658808
1.0063017822922313
1.0399709839803708
1.0810072190169873
1.1282758795190544
1.1802555321132637
1.236318625435025
1.212636513039429
1.1581970286580676
1.1080782298025924
1.0628914955284174
1.0232904088795822
0.9899455299547387
0.9639625539660339
0.9441775493596561
0.9299301859251454
0.9220768914338319
0.9157726004758567
0.9157726004758567
0.9220768914338319
0.9299301859251454
0.9441775493596561
0.9639625539660337
0.9899455299547387
1.0232904088795822
1.0628914955284174
1.1080782298025924
1.1581970286580676
1.212636513039429
1.1906171664111391
1.1369508197472435
1.0887262715005277
1.045772216646229
1.0086813796720013
0.9781209966149258
0.953155098575039
0.9299301859251454
0.9150332142470848
0.909213796491928
0.9063374830141404
0.9063374830141404
0.909213796491928
0.9150332142470848
0.9299301859251454
0.9531550985750389
0.9781209966149258
1.0086813796720013
1.045772216646229
1.0887262715005277
1.1369508197472433
1.1906171664111391
1.175282118393098
1.1208817901034913
1.0721961138363667
1.0300357349311566
0.9951932567718315
0.9675121335889655
0.9430031417589589
0.9220768914338319
0.909213796491928
0.9047641832404869
0.9047619047619048
0.9047619047619048
0.9047641832404869
0.909213796491928
0.9220768914338319
0.9430031417589586
0.9675121335889658
0.9951932567718315
1.0300357349311566
1.0721961138363665
1.120881790103491
1.175282118393098
1.1675390649761603
1.1127602607104758
1.0637029270226936
1.0211919631812654
0.986074400815947
0.9589240451521507
0.9344017208694122
0.9157726004758567
0.9063374830141404
0.9047619047619048
0.9047619047619048
0.9047619047619048
0.9047619047619048
0.9063374830141404
0.9157726004758566
0.9344017208694121
0.9589240451521506
0.986074400815947
1.0211919631812654
1.0637029270226934
1.1127602607104756
1.1675390649761603
1.1675390649761603
1.1127602607104758
1.0637029270226936
1.0211919631812654
0.986074400815947
0.9589240451521507
0.9344017208694122
0.9157726004758566
0.9063374830141404
0.9047619047619048
0.9047619047619048
0.9047619047619048
0.9047619047619048
0.9063374830141404
0.9157726004758566
0.9344017208694121
0.9589240451521506
0.986074400815947
1.0211919631812654
1.0637029270226934
1.1127602607104756
1.1675390649761603
1.175282118393098
1.120881790103491
1.0721961138363667
1.0300357349311566
0.9951932567718315
0.9675121335889658
0.9430031417589587
0.9220768914338319
0.909213796491928
0.9047641832404869
0.9047619047619048
0.9047619047619048
0.9047641832404869
0.909213796491928
0.9220768914338319
0.9430031417589587
0.9675121335889658
0.9951932567718315
1.0300357349311566
1.0721961138363665
1.120881790103491
1.175282118393098
1.1906171664111391
1.1369508197472435
1.0887262715005277
1.045772216646229
1.0086813796720013
0.9781209966149258
0.953155098575039
0.9299301859251454
0.9150332142470848
0.909213796491928
0.9063374830141404
0.9063374830141404
0.909213796491928
0.9150332142470848
0.9299301859251454
0.953155098575039
0.9781209966149258
1.0086813796720013
1.045772216646229
1.0887262715005277
1.1369508197472433
1.1906171664111391
1.2126365130394288
1.1581970286580676
1.1080782298025924
1.0628914955284177
1.0232904088795822
0.9899455299547387
0.9639625539660339
0.9441775493596561
0.9299301859251454
0.9220768914338319
0.9157726004758566
0.9157726004758566
0.9220768914338319
0.9299301859251454
0.9441775493596561
0.9639625539660338
0.9899455299547385
1.0232904088795822
1.0628914955284174
1.1080782298025924
1.1581970286580676
1.2126365130394288
1.2363186254350247
1.1802555321132637
1.1282758795190544
1.0810072190169873
1.0399709839803706
1.0063017822922313
0.9807586329658807
0.9639625539660337
0.953155098575039
0.9430031417589587
0.9344017208694121
0.9344017208694121
0.9430031417589587
0.953155098575039
0.9639625539660338
0.9807586329658807
1.0063017822922313
1.0399709839803706
1.081007219016987
1.1282758795190542
1.1802555321132637
1.2363186254350247
1.2606096946611651
1.2032572780886146
1.1508735543443334
1.1042338468251454
1.0640937122399128
1.0312124213526228
1.0063017822922313
0.9899455299547387
0.9781209966149258
0.9675121335889658
0.9589240451521506
0.9589240451521506
0.9675121335889657
0.9781209966149258
0.9899455299547387
1.0063017822922313
1.0312124213526228
1.0640937122399128
1.1042338468251454
1.1508735543443334
1.2032572780886144
1.2606096946611651
1.2877046153924523
1.2315536722976392
1.1804263249206781
1.1350016559242713
1.0959889592989054
1.0640937122399128
1.0399709839803708
1.0232904088795822
1.0086813796720013
0.9951932567718315
0.986074400815947
0.986074400815947
0.9951932567718315
1.0086813796720013
1.0232904088795822
1.0399709839803706
1.0640937122399128
1.0959889592989054
1.135001655924271
1.1804263249206781
1.231553672297639
1.2877046153924523
1.3210678016471236
1.2663970182354114
1.2167346746976018
1.172717237443271
1.135001655924271
1.1042338468251454
1.081007219016987
1.0628914955284174
1.045772216646229
1.0300357349311566
1.0211919631812654
1.0211919631812654
1.0300357349311566
1.045772216646229
1.0628914955284174
1.081007219016987
1.1042338468251454
1.135001655924271
1.172717237443271
1.2167346746976015
1.2663970182354112
1.3210678016471236
1.3602932353590766
1.3072639203353091
1.2592143654780863
1.2167346746976015
1.1804263249206781
1.1508735543443334
1.1282758795190544
1.1080782298025924
1.0887262715005277
1.0721961138363665
1.0637029270226934
1.0637029270226934
1.0721961138363665
1.0887262715005277
1.1080782298025924
1.1282758795190542
1.1508735543443334
1.1804263249206781
1.2167346746976015
1.259214365478086
1.3072639203353091
1.3602932353590766
1.4048899691248873
1.3536089156748723
1.3072639203353091
1.2663970182354112
1.231553672297639
1.2032572780886146
1.1802555321132637
1.1581970286580676
1.1369508197472433
1.120881790103491
1.1127602607104756
1.1127602607104756
1.120881790103491
1.1369508197472433
1.1581970286580674
1.1802555321132637
1.2032572780886144
1.231553672297639
1.2663970182354112
1.3072639203353091
1.3536089156748723
1.4048899691248873
1.4543639689228243
1.4048899691248873
1.3602932353590769
1.3210678016471236
1.2877046153924523
1.2606096946611651
1.2363186254350247
1.2126365130394288
1.1906171664111391
1.175282118393098
1.1675390649761603
1.1675390649761603
1.175282118393098
1.1906171664111391
1.2126365130394288
1.2363186254350247
1.2606096946611651
1.2877046153924523
1.3210678016471236
1.3602932353590766
1.4048899691248873
1.4543639689228243
1.3953420230915141
1.343696629694328
1.2969974916968168
1.2557965376019051
1.2206506395390915
1.1920325539086114
1.1663140875860667
1.1411801435621785
1.117754017777194
1.1014049505603003
1.0931387265802894
1.0931387265802894
1.1014049505603003
1.117754017777194
1.1411801435621785
1.1663140875860665
1.1920325539086112
1.2206506395390915
1.2557965376019051
1.2969974916968168
1.343696629694328
1.3953420230915141
1.343696629694328
1.2899852339847435
1.241266999768628
1.1981511653792731
1.1612619235357589
1.1312085946355743
1.106710408547843
1.0831551894795808
1.0604065134787217
1.043159045730696
1.0344274769748798
1.0344274769748798
1.043159045730696
1.060406513478722
1.0831551894795808
1.106710408547843
1.1312085946355743
1.1612619235357589
1.1981511653792731
1.241266999768628
1.2899852339847435
1.3436966296943282
1.2969974916968168
1.241266999768628
1.190556855228069
1.1455339697781328
1.1068925493786235
1.0753207639552624
1.0511000274039886
1.029389222144188
1.0085284832663926
0.9906610489112694
0.9814625434833545
0.9814625434833545
0.9906610489112694
1.0085284832663928
1.029389222144188
1.0511000274039886
1.0753207639552624
1.1068925493786235
1.1455339697781328
1.190556855228069
1.241266999768628
1.2969974916968168
1.2557965376019051
1.1981511653792731
1.1455339697781328
1.0986676141129978
1.058316382871874
1.0252498211550336
1.0001906892543093
0.9805830605159389
0.962000174850991
0.9448695267280756
0.9352207402373925
0.9352207402373925
0.9448695267280756
0.962000174850991
0.9805830605159389
1.0001906892543093
1.0252498211550336
1.0583163828718742
1.0986676141129978
1.1455339697781328
1.1981511653792731
1.2557965376019051
1.2206506395390915
1.1612619235357586
1.1068925493786235
1.058316382871874
1.0163644062093413
0.9818860604635795
0.955690564369697
0.9375116363059781
0.9215437770400179
0.9067604014447775
0.8967427341488184
0.8967427341488184
0.9067604014447775
0.9215437770400179