# vtk DataFile Version 4.1
Header:
ASCII

DATASET UNSTRUCTURED_GRID
POINTS 208 double
-0.21739130434782616 -0.5652173913043479 0.30434782608695654
-0.13043478260869568 -0.5652173913043479 0.30434782608695654
-0.13043478260869568 -0.4782608695652174 0.30434782608695654
-0.21739130434782616 -0.4782608695652174 0.30434782608695654
-0.21739130434782616 -0.5652173913043479 0.3913043478260869
-0.13043478260869568 -0.5652173913043479 0.3913043478260869
-0.13043478260869568 -0.4782608695652174 0.3913043478260869
-0.21739130434782616 -0.4782608695652174 0.3913043478260869
-0.04347826086956519 -0.5652173913043479 0.30434782608695654
-0.04347826086956519 -0.4782608695652174 0.30434782608695654
-0.04347826086956519 -0.5652173913043479 0.3913043478260869
-0.04347826086956519 -0.4782608695652174 0.3913043478260869
0.04347826086956519 -0.5652173913043479 0.30434782608695654
0.04347826086956519 -0.4782608695652174 0.30434782608695654
0.04347826086956519 -0.5652173913043479 0.3913043478260869
0.04347826086956519 -0.4782608695652174 0.3913043478260869
0.13043478260869557 -0.5652173913043479 0.30434782608695654
0.13043478260869557 -0.4782608695652174 0.30434782608695654
0.13043478260869557 -0.5652173913043479 0.3913043478260869
0.13043478260869557 -0.4782608695652174 0.3913043478260869
0.21739130434782616 -0.5652173913043479 0.30434782608695654
0.21739130434782616 -0.4782608695652174 0.30434782608695654
0.21739130434782616 -0.5652173913043479 0.3913043478260869
0.21739130434782616 -0.4782608695652174 0.3913043478260869
-0.3913043478260869 -0.4782608695652174 0.30434782608695654
-0.30434782608695654 -0.4782608695652174 0.30434782608695654
-0.30434782608695654 -0.3913043478260869 0.30434782608695654
-0.3913043478260869 -0.3913043478260869 0.30434782608695654
-0.3913043478260869 -0.4782608695652174 0.3913043478260869
-0.30434782608695654 -0.4782608695652174 0.3913043478260869
-0.30434782608695654 -0.3913043478260869 0.3913043478260869
-0.3913043478260869 -0.3913043478260869 0.3913043478260869
-0.21739130434782616 -0.3913043478260869 0.30434782608695654
-0.21739130434782616 -0.3913043478260869 0.3913043478260869
-0.13043478260869568 -0.3913043478260869 0.30434782608695654
-0.13043478260869568 -0.3913043478260869 0.3913043478260869
-0.04347826086956519 -0.3913043478260869 0.30434782608695654
-0.04347826086956519 -0.3913043478260869 0.3913043478260869
0.13043478260869557 -0.3913043478260869 0.30434782608695654
0.04347826086956519 -0.3913043478260869 0.30434782608695654
0.13043478260869557 -0.3913043478260869 0.3913043478260869
0.04347826086956519 -0.3913043478260869 0.3913043478260869
0.21739130434782616 -0.3913043478260869 0.30434782608695654
0.21739130434782616 -0.3913043478260869 0.3913043478260869
0.30434782608695654 -0.4782608695652174 0.30434782608695654
0.30434782608695654 -0.3913043478260869 0.30434782608695654
0.30434782608695654 -0.4782608695652174 0.3913043478260869
0.30434782608695654 -0.3913043478260869 0.3913043478260869
0.3913043478260869 -0.4782608695652174 0.30434782608695654
0.3913043478260869 -0.3913043478260869 0.30434782608695654
0.3913043478260869 -0.4782608695652174 0.3913043478260869
0.3913043478260869 -0.3913043478260869 0.3913043478260869
-0.4782608695652174 -0.3913043478260869 0.30434782608695654
-0.3913043478260869 -0.30434782608695654 0.30434782608695654
-0.4782608695652174 -0.30434782608695654 0.30434782608695654
-0.4782608695652174 -0.3913043478260869 0.3913043478260869
-0.3913043478260869 -0.30434782608695654 0.3913043478260869
-0.4782608695652174 -0.30434782608695654 0.3913043478260869
-0.30434782608695654 -0.30434782608695654 0.30434782608695654
-0.30434782608695654 -0.30434782608695654 0.3913043478260869
0.3913043478260869 -0.30434782608695654 0.30434782608695654
0.30434782608695654 -0.30434782608695654 0.30434782608695654
0.3913043478260869 -0.30434782608695654 0.3913043478260869
0.30434782608695654 -0.30434782608695654 0.3913043478260869
0.4782608695652173 -0.3913043478260869 0.30434782608695654
0.4782608695652173 -0.30434782608695654 0.30434782608695654
0.4782608695652173 -0.3913043478260869 0.3913043478260869
0.4782608695652173 -0.30434782608695654 0.3913043478260869
-0.3913043478260869 -0.21739130434782616 0.30434782608695654
-0.4782608695652174 -0.21739130434782616 0.30434782608695654
-0.3913043478260869 -0.21739130434782616 0.3913043478260869
-0.4782608695652174 -0.21739130434782616 0.3913043478260869
0.4782608695652173 -0.21739130434782616 0.30434782608695654
0.3913043478260869 -0.21739130434782616 0.30434782608695654
0.4782608695652173 -0.21739130434782616 0.3913043478260869
0.3913043478260869 -0.21739130434782616 0.3913043478260869
-0.5652173913043479 -0.21739130434782616 0.30434782608695654
-0.4782608695652174 -0.13043478260869568 0.30434782608695654
-0.5652173913043479 -0.13043478260869568 0.30434782608695654
-0.5652173913043479 -0.21739130434782616 0.3913043478260869
-0.4782608695652174 -0.13043478260869568 0.3913043478260869
-0.5652173913043479 -0.13043478260869568 0.3913043478260869
-0.3913043478260869 -0.13043478260869568 0.30434782608695654
-0.3913043478260869 -0.13043478260869568 0.3913043478260869
0.4782608695652173 -0.13043478260869568 0.30434782608695654
0.3913043478260869 -0.13043478260869568 0.30434782608695654
0.4782608695652173 -0.13043478260869568 0.3913043478260869
0.3913043478260869 -0.13043478260869568 0.3913043478260869
0.5652173913043477 -0.21739130434782616 0.30434782608695654
0.5652173913043477 -0.13043478260869568 0.30434782608695654
0.5652173913043477 -0.21739130434782616 0.3913043478260869
0.5652173913043477 -0.13043478260869568 0.3913043478260869
-0.4782608695652174 -0.04347826086956519 0.30434782608695654
-0.5652173913043479 -0.04347826086956519 0.30434782608695654
-0.4782608695652174 -0.04347826086956519 0.3913043478260869
-0.5652173913043479 -0.04347826086956519 0.3913043478260869
-0.3913043478260869 -0.04347826086956519 0.30434782608695654
-0.3913043478260869 -0.04347826086956519 0.3913043478260869
0.4782608695652173 -0.04347826086956519 0.30434782608695654
0.3913043478260869 -0.04347826086956519 0.30434782608695654
0.4782608695652173 -0.04347826086956519 0.3913043478260869
0.3913043478260869 -0.04347826086956519 0.3913043478260869
0.5652173913043477 -0.04347826086956519 0.30434782608695654
0.5652173913043477 -0.04347826086956519 0.3913043478260869
-0.4782608695652174 0.04347826086956519 0.30434782608695654
-0.5652173913043479 0.04347826086956519 0.30434782608695654
-0.4782608695652174 0.04347826086956519 0.3913043478260869
-0.5652173913043479 0.04347826086956519 0.3913043478260869
0.5652173913043477 0.04347826086956519 0.30434782608695654
0.4782608695652173 0.04347826086956519 0.30434782608695654
0.5652173913043477 0.04347826086956519 0.3913043478260869
0.4782608695652173 0.04347826086956519 0.3913043478260869
-0.4782608695652174 0.13043478260869557 0.30434782608695654
-0.5652173913043479 0.13043478260869557 0.30434782608695654
-0.4782608695652174 0.13043478260869557 0.3913043478260869
-0.5652173913043479 0.13043478260869557 0.3913043478260869
-0.3913043478260869 0.04347826086956519 0.30434782608695654
-0.3913043478260869 0.13043478260869557 0.30434782608695654
-0.3913043478260869 0.04347826086956519 0.3913043478260869
-0.3913043478260869 0.13043478260869557 0.3913043478260869
0.3913043478260869 0.04347826086956519 0.30434782608695654
0.4782608695652173 0.13043478260869557 0.30434782608695654
0.3913043478260869 0.13043478260869557 0.30434782608695654
0.3913043478260869 0.04347826086956519 0.3913043478260869
0.4782608695652173 0.13043478260869557 0.3913043478260869
0.3913043478260869 0.13043478260869557 0.3913043478260869
0.5652173913043477 0.13043478260869557 0.30434782608695654
0.5652173913043477 0.13043478260869557 0.3913043478260869
-0.4782608695652174 0.21739130434782616 0.30434782608695654
-0.5652173913043479 0.21739130434782616 0.30434782608695654
-0.4782608695652174 0.21739130434782616 0.3913043478260869
-0.5652173913043479 0.21739130434782616 0.3913043478260869
-0.3913043478260869 0.21739130434782616 0.30434782608695654
-0.3913043478260869 0.21739130434782616 0.3913043478260869
0.4782608695652173 0.21739130434782616 0.30434782608695654
0.3913043478260869 0.21739130434782616 0.30434782608695654
0.4782608695652173 0.21739130434782616 0.3913043478260869
0.3913043478260869 0.21739130434782616 0.3913043478260869
0.5652173913043477 0.21739130434782616 0.30434782608695654
0.5652173913043477 0.21739130434782616 0.3913043478260869
-0.3913043478260869 0.30434782608695654 0.30434782608695654
-0.4782608695652174 0.30434782608695654 0.30434782608695654
-0.3913043478260869 0.30434782608695654 0.3913043478260869
-0.4782608695652174 0.30434782608695654 0.3913043478260869
0.4782608695652173 0.30434782608695654 0.30434782608695654
0.3913043478260869 0.30434782608695654 0.30434782608695654
0.4782608695652173 0.30434782608695654 0.3913043478260869
0.3913043478260869 0.30434782608695654 0.3913043478260869
-0.3913043478260869 0.3913043478260869 0.30434782608695654
-0.4782608695652174 0.3913043478260869 0.30434782608695654
-0.3913043478260869 0.3913043478260869 0.3913043478260869
-0.4782608695652174 0.3913043478260869 0.3913043478260869
-0.30434782608695654 0.30434782608695654 0.30434782608695654
-0.30434782608695654 0.3913043478260869 0.30434782608695654
-0.30434782608695654 0.30434782608695654 0.3913043478260869
-0.30434782608695654 0.3913043478260869 0.3913043478260869
0.30434782608695654 0.30434782608695654 0.30434782608695654
0.3913043478260869 0.3913043478260869 0.30434782608695654
0.30434782608695654 0.3913043478260869 0.30434782608695654
0.30434782608695654 0.30434782608695654 0.3913043478260869
0.3913043478260869 0.3913043478260869 0.3913043478260869
0.30434782608695654 0.3913043478260869 0.3913043478260869
0.4782608695652173 0.3913043478260869 0.30434782608695654
0.4782608695652173 0.3913043478260869 0.3913043478260869
-0.30434782608695654 0.4782608695652173 0.30434782608695654
-0.3913043478260869 0.4782608695652173 0.30434782608695654
-0.30434782608695654 0.4782608695652173 0.3913043478260869
-0.3913043478260869 0.4782608695652173 0.3913043478260869
-0.21739130434782616 0.3913043478260869 0.30434782608695654
-0.21739130434782616 0.4782608695652173 0.30434782608695654
-0.21739130434782616 0.3913043478260869 0.3913043478260869
-0.21739130434782616 0.4782608695652173 0.3913043478260869
-0.13043478260869568 0.3913043478260869 0.30434782608695654
-0.13043478260869568 0.4782608695652173 0.30434782608695654
-0.13043478260869568 0.3913043478260869 0.3913043478260869
-0.13043478260869568 0.4782608695652173 0.3913043478260869
-0.04347826086956519 0.3913043478260869 0.30434782608695654
-0.04347826086956519 0.4782608695652173 0.30434782608695654
-0.04347826086956519 0.3913043478260869 0.3913043478260869
-0.04347826086956519 0.4782608695652173 0.3913043478260869
0.04347826086956519 0.3913043478260869 0.30434782608695654
0.13043478260869557 0.3913043478260869 0.30434782608695654
0.13043478260869557 0.4782608695652173 0.30434782608695654
0.04347826086956519 0.4782608695652173 0.30434782608695654
0.04347826086956519 0.3913043478260869 0.3913043478260869
0.13043478260869557 0.3913043478260869 0.3913043478260869
0.13043478260869557 0.4782608695652173 0.3913043478260869
0.04347826086956519 0.4782608695652173 0.3913043478260869
0.21739130434782616 0.3913043478260869 0.30434782608695654
0.21739130434782616 0.4782608695652173 0.30434782608695654
0.21739130434782616 0.3913043478260869 0.3913043478260869
0.21739130434782616 0.4782608695652173 0.3913043478260869
0.30434782608695654 0.4782608695652173 0.30434782608695654
0.30434782608695654 0.4782608695652173 0.3913043478260869
0.3913043478260869 0.4782608695652173 0.30434782608695654
0.3913043478260869 0.4782608695652173 0.3913043478260869
-0.13043478260869568 0.5652173913043477 0.30434782608695654
-0.21739130434782616 0.5652173913043477 0.30434782608695654
-0.13043478260869568 0.5652173913043477 0.3913043478260869
-0.21739130434782616 0.5652173913043477 0.3913043478260869
-0.04347826086956519 0.5652173913043477 0.30434782608695654
-0.04347826086956519 0.5652173913043477 0.3913043478260869
0.04347826086956519 0.5652173913043477 0.30434782608695654
0.04347826086956519 0.5652173913043477 0.3913043478260869
0.13043478260869557 0.5652173913043477 0.30434782608695654
0.13043478260869557 0.5652173913043477 0.3913043478260869
0.21739130434782616 0.5652173913043477 0.30434782608695654
0.21739130434782616 0.5652173913043477 0.3913043478260869


POINT_DATA 208
SCALARS Tip_nodes_new double 1
LOOKUP_TABLE default
0
0
0
0
0
0
0
0
0
0
0
0
0
0
0
0
0
0
0
0
0
0
0
0
0
0
0
0
0
0
0
0
0
0
0
0
0
0
0
0
0
0
0
0
0
0
0
0
0
0
0
0
0
0
0
0
0
0
0
0
0
0
0
0
0
0
0
0
0
0
0
0
0
0
0
0
0
0
0
0
0
0
0
0
0
0
0
0
0
0
0
0
0
0
0
0
0
0
0
0
0
0
0
0
0
0
0
0
0
0
0
0
0
0
0
0
0
0
0
0
0
0
0
0
0
0
0
0
0
0
0
0
0
0
0
0
0
0
0
0
0
0
0
0
0
0
0
0
0
0
0
0
0
0
0
0
0
0
0
0
0
0
0
0
0
0
0
0
0
0
0
0
0
0
0
0
0
0
0
0
0
0
0
0
0
0
0
0
0
0
0
0
0
0
0
0
0
0
0
0
0
0
0
0
0
0
0
0

