# vtk DataFile Version 4.1
Header:
ASCII

DATASET UNSTRUCTURED_GRID
POINTS 40 double
-0.19047619047619052 -0.28571428571428575 -1.1102230246251565E-16
-0.09523809523809529 -0.28571428571428575 -1.1102230246251565E-16
-1.1102230246251565E-16 -0.28571428571428575 -1.1102230246251565E-16
0.09523809523809512 -0.28571428571428575 -1.1102230246251565E-16
0.19047619047619047 -0.28571428571428575 -1.1102230246251565E-16
-0.28571428571428575 -0.19047619047619052 -1.1102230246251565E-16
-0.19047619047619052 -0.19047619047619052 -1.1102230246251565E-16
-0.09523809523809529 -0.19047619047619052 -1.1102230246251565E-16
0.09523809523809512 -0.19047619047619052 -1.1102230246251565E-16
0.19047619047619047 -0.19047619047619052 -1.1102230246251565E-16
0.2857142857142857 -0.19047619047619052 -1.1102230246251565E-16
-0.28571428571428575 -0.09523809523809529 -1.1102230246251565E-16
-0.19047619047619052 -0.09523809523809529 -1.1102230246251565E-16
0.19047619047619047 -0.09523809523809529 -1.1102230246251565E-16
0.2857142857142857 -0.09523809523809529 -1.1102230246251565E-16
-0.28571428571428575 -1.1102230246251565E-16 -1.1102230246251565E-16
0.2857142857142857 -1.1102230246251565E-16 -1.1102230246251565E-16
-0.28571428571428575 0.09523809523809512 -1.1102230246251565E-16
-0.19047619047619052 0.09523809523809512 -1.1102230246251565E-16
0.19047619047619047 0.09523809523809512 -1.1102230246251565E-16
0.2857142857142857 0.09523809523809512 -1.1102230246251565E-16
-0.28571428571428575 0.19047619047619047 -1.1102230246251565E-16
-0.19047619047619052 0.19047619047619047 -1.1102230246251565E-16
-0.09523809523809529 0.19047619047619047 -1.1102230246251565E-16
0.09523809523809512 0.19047619047619047 -1.1102230246251565E-16
0.19047619047619047 0.19047619047619047 -1.1102230246251565E-16
0.2857142857142857 0.19047619047619047 -1.1102230246251565E-16
-0.19047619047619052 0.2857142857142857 -1.1102230246251565E-16
-0.09523809523809529 0.2857142857142857 -1.1102230246251565E-16
-1.1102230246251565E-16 0.2857142857142857 -1.1102230246251565E-16
0.09523809523809512 0.2857142857142857 -1.1102230246251565E-16
0.19047619047619047 0.2857142857142857 -1.1102230246251565E-16
-0.09523809523809529 -0.28571428571428575 0.09523809523809512
0.09523809523809512 -0.28571428571428575 0.09523809523809512
-0.28571428571428575 -0.09523809523809529 0.09523809523809512
0.2857142857142857 -0.09523809523809529 0.09523809523809512
-0.28571428571428575 0.09523809523809512 0.09523809523809512
0.2857142857142857 0.09523809523809512 0.09523809523809512
-0.09523809523809529 0.2857142857142857 0.09523809523809512
0.09523809523809512 0.2857142857142857 0.09523809523809512


POINT_DATA 40
SCALARS tip_element_centroids double 1
LOOKUP_TABLE default
0
0
0
0
0
0
0
0
0
0
0
0
0
0
0
0
0
0
0
0
0
0
0
0
0
0
0
0
0
0
0
0
0
0
0
0
0
0
0
0

