# vtk DataFile Version 4.1
Header:
ASCII

DATASET UNSTRUCTURED_GRID
POINTS 208 double
-0.13043478260869568 -0.3913043478260869 -0.04347826086956519
-0.04347826086956519 -0.3913043478260869 -0.04347826086956519
-0.04347826086956519 -0.30434782608695654 -0.04347826086956519
-0.13043478260869568 -0.30434782608695654 -0.04347826086956519
-0.13043478260869568 -0.3913043478260869 0.04347826086956519
-0.04347826086956519 -0.3913043478260869 0.04347826086956519
-0.04347826086956519 -0.30434782608695654 0.04347826086956519
-0.13043478260869568 -0.30434782608695654 0.04347826086956519
0.04347826086956519 -0.3913043478260869 -0.04347826086956519
0.04347826086956519 -0.30434782608695654 -0.04347826086956519
0.04347826086956519 -0.3913043478260869 0.04347826086956519
0.04347826086956519 -0.30434782608695654 0.04347826086956519
0.13043478260869557 -0.3913043478260869 -0.04347826086956519
0.13043478260869557 -0.30434782608695654 -0.04347826086956519
0.13043478260869557 -0.3913043478260869 0.04347826086956519
0.13043478260869557 -0.30434782608695654 0.04347826086956519
-0.30434782608695654 -0.30434782608695654 -0.04347826086956519
-0.21739130434782616 -0.30434782608695654 -0.04347826086956519
-0.21739130434782616 -0.21739130434782616 -0.04347826086956519
-0.30434782608695654 -0.21739130434782616 -0.04347826086956519
-0.30434782608695654 -0.30434782608695654 0.04347826086956519
-0.21739130434782616 -0.30434782608695654 0.04347826086956519
-0.21739130434782616 -0.21739130434782616 0.04347826086956519
-0.30434782608695654 -0.21739130434782616 0.04347826086956519
0.21739130434782616 -0.30434782608695654 -0.04347826086956519
0.30434782608695654 -0.30434782608695654 -0.04347826086956519
0.30434782608695654 -0.21739130434782616 -0.04347826086956519
0.21739130434782616 -0.21739130434782616 -0.04347826086956519
0.21739130434782616 -0.30434782608695654 0.04347826086956519
0.30434782608695654 -0.30434782608695654 0.04347826086956519
0.30434782608695654 -0.21739130434782616 0.04347826086956519
0.21739130434782616 -0.21739130434782616 0.04347826086956519
-0.3913043478260869 -0.13043478260869568 -0.04347826086956519
-0.30434782608695654 -0.13043478260869568 -0.04347826086956519
-0.30434782608695654 -0.04347826086956519 -0.04347826086956519
-0.3913043478260869 -0.04347826086956519 -0.04347826086956519
-0.3913043478260869 -0.13043478260869568 0.04347826086956519
-0.30434782608695654 -0.13043478260869568 0.04347826086956519
-0.30434782608695654 -0.04347826086956519 0.04347826086956519
-0.3913043478260869 -0.04347826086956519 0.04347826086956519
0.30434782608695654 -0.13043478260869568 -0.04347826086956519
0.3913043478260869 -0.13043478260869568 -0.04347826086956519
0.3913043478260869 -0.04347826086956519 -0.04347826086956519
0.30434782608695654 -0.04347826086956519 -0.04347826086956519
0.30434782608695654 -0.13043478260869568 0.04347826086956519
0.3913043478260869 -0.13043478260869568 0.04347826086956519
0.3913043478260869 -0.04347826086956519 0.04347826086956519
0.30434782608695654 -0.04347826086956519 0.04347826086956519
-0.30434782608695654 0.04347826086956519 -0.04347826086956519
-0.3913043478260869 0.04347826086956519 -0.04347826086956519
-0.30434782608695654 0.04347826086956519 0.04347826086956519
-0.3913043478260869 0.04347826086956519 0.04347826086956519
0.3913043478260869 0.04347826086956519 -0.04347826086956519
0.30434782608695654 0.04347826086956519 -0.04347826086956519
0.3913043478260869 0.04347826086956519 0.04347826086956519
0.30434782608695654 0.04347826086956519 0.04347826086956519
-0.30434782608695654 0.13043478260869557 -0.04347826086956519
-0.3913043478260869 0.13043478260869557 -0.04347826086956519
-0.30434782608695654 0.13043478260869557 0.04347826086956519
-0.3913043478260869 0.13043478260869557 0.04347826086956519
0.3913043478260869 0.13043478260869557 -0.04347826086956519
0.30434782608695654 0.13043478260869557 -0.04347826086956519
0.3913043478260869 0.13043478260869557 0.04347826086956519
0.30434782608695654 0.13043478260869557 0.04347826086956519
-0.30434782608695654 0.21739130434782616 -0.04347826086956519
-0.21739130434782616 0.21739130434782616 -0.04347826086956519
-0.21739130434782616 0.30434782608695654 -0.04347826086956519
-0.30434782608695654 0.30434782608695654 -0.04347826086956519
-0.30434782608695654 0.21739130434782616 0.04347826086956519
-0.21739130434782616 0.21739130434782616 0.04347826086956519
-0.21739130434782616 0.30434782608695654 0.04347826086956519
-0.30434782608695654 0.30434782608695654 0.04347826086956519
0.21739130434782616 0.21739130434782616 -0.04347826086956519
0.30434782608695654 0.21739130434782616 -0.04347826086956519
0.30434782608695654 0.30434782608695654 -0.04347826086956519
0.21739130434782616 0.30434782608695654 -0.04347826086956519
0.21739130434782616 0.21739130434782616 0.04347826086956519
0.30434782608695654 0.21739130434782616 0.04347826086956519
0.30434782608695654 0.30434782608695654 0.04347826086956519
0.21739130434782616 0.30434782608695654 0.04347826086956519
-0.13043478260869568 0.30434782608695654 -0.04347826086956519
-0.04347826086956519 0.30434782608695654 -0.04347826086956519
-0.04347826086956519 0.3913043478260869 -0.04347826086956519
-0.13043478260869568 0.3913043478260869 -0.04347826086956519
-0.13043478260869568 0.30434782608695654 0.04347826086956519
-0.04347826086956519 0.30434782608695654 0.04347826086956519
-0.04347826086956519 0.3913043478260869 0.04347826086956519
-0.13043478260869568 0.3913043478260869 0.04347826086956519
0.04347826086956519 0.30434782608695654 -0.04347826086956519
0.04347826086956519 0.3913043478260869 -0.04347826086956519
0.04347826086956519 0.30434782608695654 0.04347826086956519
0.04347826086956519 0.3913043478260869 0.04347826086956519
0.13043478260869557 0.30434782608695654 -0.04347826086956519
0.13043478260869557 0.3913043478260869 -0.04347826086956519
0.13043478260869557 0.30434782608695654 0.04347826086956519
0.13043478260869557 0.3913043478260869 0.04347826086956519
-0.30434782608695654 -0.3913043478260869 0.04347826086956519
-0.21739130434782616 -0.3913043478260869 0.04347826086956519
-0.30434782608695654 -0.3913043478260869 0.13043478260869557
-0.21739130434782616 -0.3913043478260869 0.13043478260869557
-0.21739130434782616 -0.30434782608695654 0.13043478260869557
-0.30434782608695654 -0.30434782608695654 0.13043478260869557
-0.13043478260869568 -0.3913043478260869 0.13043478260869557
-0.13043478260869568 -0.30434782608695654 0.13043478260869557
-0.04347826086956519 -0.3913043478260869 0.13043478260869557
-0.04347826086956519 -0.30434782608695654 0.13043478260869557
0.04347826086956519 -0.3913043478260869 0.13043478260869557
0.04347826086956519 -0.30434782608695654 0.13043478260869557
0.13043478260869557 -0.3913043478260869 0.13043478260869557
0.13043478260869557 -0.30434782608695654 0.13043478260869557
0.21739130434782616 -0.3913043478260869 0.04347826086956519
0.21739130434782616 -0.3913043478260869 0.13043478260869557
0.21739130434782616 -0.30434782608695654 0.13043478260869557
0.30434782608695654 -0.3913043478260869 0.04347826086956519
0.30434782608695654 -0.3913043478260869 0.13043478260869557
0.30434782608695654 -0.30434782608695654 0.13043478260869557
-0.3913043478260869 -0.30434782608695654 0.04347826086956519
-0.3913043478260869 -0.21739130434782616 0.04347826086956519
-0.3913043478260869 -0.30434782608695654 0.13043478260869557
-0.30434782608695654 -0.21739130434782616 0.13043478260869557
-0.3913043478260869 -0.21739130434782616 0.13043478260869557
-0.21739130434782616 -0.21739130434782616 0.13043478260869557
-0.13043478260869568 -0.21739130434782616 0.04347826086956519
-0.13043478260869568 -0.21739130434782616 0.13043478260869557
-0.04347826086956519 -0.21739130434782616 0.04347826086956519
-0.04347826086956519 -0.21739130434782616 0.13043478260869557
0.13043478260869557 -0.21739130434782616 0.04347826086956519
0.04347826086956519 -0.21739130434782616 0.04347826086956519
0.13043478260869557 -0.21739130434782616 0.13043478260869557
0.04347826086956519 -0.21739130434782616 0.13043478260869557
0.21739130434782616 -0.21739130434782616 0.13043478260869557
0.30434782608695654 -0.21739130434782616 0.13043478260869557
0.3913043478260869 -0.30434782608695654 0.04347826086956519
0.3913043478260869 -0.21739130434782616 0.04347826086956519
0.3913043478260869 -0.30434782608695654 0.13043478260869557
0.3913043478260869 -0.21739130434782616 0.13043478260869557
-0.30434782608695654 -0.13043478260869568 0.13043478260869557
-0.3913043478260869 -0.13043478260869568 0.13043478260869557
-0.21739130434782616 -0.13043478260869568 0.04347826086956519
-0.21739130434782616 -0.13043478260869568 0.13043478260869557
0.21739130434782616 -0.13043478260869568 0.04347826086956519
0.30434782608695654 -0.13043478260869568 0.13043478260869557
0.21739130434782616 -0.13043478260869568 0.13043478260869557
0.3913043478260869 -0.13043478260869568 0.13043478260869557
-0.30434782608695654 -0.04347826086956519 0.13043478260869557
-0.3913043478260869 -0.04347826086956519 0.13043478260869557
-0.21739130434782616 -0.04347826086956519 0.04347826086956519
-0.21739130434782616 -0.04347826086956519 0.13043478260869557
0.21739130434782616 -0.04347826086956519 0.04347826086956519
0.30434782608695654 -0.04347826086956519 0.13043478260869557
0.21739130434782616 -0.04347826086956519 0.13043478260869557
0.3913043478260869 -0.04347826086956519 0.13043478260869557
-0.30434782608695654 0.04347826086956519 0.13043478260869557
-0.3913043478260869 0.04347826086956519 0.13043478260869557
0.3913043478260869 0.04347826086956519 0.13043478260869557
0.30434782608695654 0.04347826086956519 0.13043478260869557
-0.30434782608695654 0.13043478260869557 0.13043478260869557
-0.3913043478260869 0.13043478260869557 0.13043478260869557
-0.21739130434782616 0.04347826086956519 0.04347826086956519
-0.21739130434782616 0.13043478260869557 0.04347826086956519
-0.21739130434782616 0.04347826086956519 0.13043478260869557
-0.21739130434782616 0.13043478260869557 0.13043478260869557
0.21739130434782616 0.04347826086956519 0.04347826086956519
0.21739130434782616 0.13043478260869557 0.04347826086956519
0.21739130434782616 0.04347826086956519 0.13043478260869557
0.30434782608695654 0.13043478260869557 0.13043478260869557
0.21739130434782616 0.13043478260869557 0.13043478260869557
0.3913043478260869 0.13043478260869557 0.13043478260869557
-0.3913043478260869 0.21739130434782616 0.04347826086956519
-0.30434782608695654 0.21739130434782616 0.13043478260869557
-0.3913043478260869 0.21739130434782616 0.13043478260869557
-0.21739130434782616 0.21739130434782616 0.13043478260869557
0.30434782608695654 0.21739130434782616 0.13043478260869557
0.21739130434782616 0.21739130434782616 0.13043478260869557
0.3913043478260869 0.21739130434782616 0.04347826086956519
0.3913043478260869 0.21739130434782616 0.13043478260869557
-0.3913043478260869 0.30434782608695654 0.04347826086956519
-0.30434782608695654 0.30434782608695654 0.13043478260869557
-0.3913043478260869 0.30434782608695654 0.13043478260869557
-0.21739130434782616 0.30434782608695654 0.13043478260869557
-0.13043478260869568 0.21739130434782616 0.04347826086956519
-0.13043478260869568 0.21739130434782616 0.13043478260869557
-0.13043478260869568 0.30434782608695654 0.13043478260869557
-0.04347826086956519 0.21739130434782616 0.04347826086956519
-0.04347826086956519 0.21739130434782616 0.13043478260869557
-0.04347826086956519 0.30434782608695654 0.13043478260869557
0.04347826086956519 0.21739130434782616 0.04347826086956519
0.13043478260869557 0.21739130434782616 0.04347826086956519
0.04347826086956519 0.21739130434782616 0.13043478260869557
0.13043478260869557 0.21739130434782616 0.13043478260869557
0.13043478260869557 0.30434782608695654 0.13043478260869557
0.04347826086956519 0.30434782608695654 0.13043478260869557
0.21739130434782616 0.30434782608695654 0.13043478260869557
0.30434782608695654 0.30434782608695654 0.13043478260869557
0.3913043478260869 0.30434782608695654 0.04347826086956519
0.3913043478260869 0.30434782608695654 0.13043478260869557
-0.21739130434782616 0.3913043478260869 0.04347826086956519
-0.30434782608695654 0.3913043478260869 0.04347826086956519
-0.21739130434782616 0.3913043478260869 0.13043478260869557
-0.30434782608695654 0.3913043478260869 0.13043478260869557
-0.13043478260869568 0.3913043478260869 0.13043478260869557
-0.04347826086956519 0.3913043478260869 0.13043478260869557
0.04347826086956519 0.3913043478260869 0.13043478260869557
0.13043478260869557 0.3913043478260869 0.13043478260869557
0.21739130434782616 0.3913043478260869 0.04347826086956519
0.21739130434782616 0.3913043478260869 0.13043478260869557
0.30434782608695654 0.3913043478260869 0.04347826086956519
0.30434782608695654 0.3913043478260869 0.13043478260869557


POINT_DATA 208
SCALARS Tip_nodes_new double 1
LOOKUP_TABLE default
0
0
0
0
0
0
0
0
0
0
0
0
0
0
0
0
0
0
0
0
0
0
0
0
0
0
0
0
0
0
0
0
0
0
0
0
0
0
0
0
0
0
0
0
0
0
0
0
0
0
0
0
0
0
0
0
0
0
0
0
0
0
0
0
0
0
0
0
0
0
0
0
0
0
0
0
0
0
0
0
0
0
0
0
0
0
0
0
0
0
0
0
0
0
0
0
0
0
0
0
0
0
0
0
0
0
0
0
0
0
0
0
0
0
0
0
0
0
0
0
0
0
0
0
0
0
0
0
0
0
0
0
0
0
0
0
0
0
0
0
0
0
0
0
0
0
0
0
0
0
0
0
0
0
0
0
0
0
0
0
0
0
0
0
0
0
0
0
0
0
0
0
0
0
0
0
0
0
0
0
0
0
0
0
0
0
0
0
0
0
0
0
0
0
0
0
0
0
0
0
0
0
0
0
0
0
0
0

