# vtk DataFile Version 4.1
Header:
ASCII

DATASET UNSTRUCTURED_GRID
POINTS 76 double
-0.4687900244488303 -0.4703578909791445 0.0
-0.47459114579234796 -0.46765572724027715 0.0
-0.36150998205402496 -0.4930574415310294 0.0
-0.4384900179459751 -0.47716425980971755 0.0
-0.22817664872069157 -0.4917242214046554 0.0
-0.3051566846126418 -0.4969587714822211 0.0
-0.14625151281424045 -0.47155705719146895 0.0
-0.18559813626418112 -0.48491785257408215 0.0
-0.614782114167804 -0.3843137166937616 0.0
-0.6551676011175285 -0.34699348588458917 0.0
-0.5027677945130397 -0.45215017049723094 0.0
-0.573946709061472 -0.41249036541445316 0.0
-0.11807486409354889 -0.4613314930691983 0.0
-0.08044145165153947 -0.4467555277337143 0.0
0.038490017945975036 -0.3609677727740857 0.0
-0.03849001794597504 -0.41986314993125573 0.0
0.17182335127930837 -0.37691588430578765 0.0
0.09484331538735827 -0.3494600876326167 0.0
0.30515668461264167 -0.3961170111070408 0.0
0.22817664872069154 -0.3894175692720803 0.0
0.4384900179459749 -0.3705048238618957 0.0
0.36150998205402485 -0.3910493562477264 0.0
0.5045821817934506 -0.339599468455773 0.0
0.4768260983254984 -0.35671886797736996 0.0
-0.7385144253572175 -0.2344320487023298 0.0
-0.7526694320051586 -0.2092260396435383 0.0
-0.6833442498382201 -0.3143827242561801 0.0
-0.7199387987804459 -0.26260869742302145 0.0
0.5327588305141424 -0.31780101756233575 0.0
0.5819827829381402 -0.27536594171676687 0.0
0.6355415071450314 -0.21264433294969398 0.0
0.6095233181372962 -0.24718929299607523 0.0
-0.7657975574137608 -0.17182335127930837 0.0
-0.7875092563902567 -0.09484331538735827 0.0
0.6554591050654335 -0.17182335127930837 0.0
0.6838568055409648 -0.09484331538735828 0.0
-0.7954562897749748 -0.038490017945975036 0.0
-0.7954562897749748 0.03849001794597504 0.0
0.6942510853240709 -0.03849001794597504 0.0
0.6942510853240709 0.03849001794597504 0.0
-0.7875092563902568 0.09484331538735827 0.0
-0.7657975574137608 0.17182335127930834 0.0
0.683856805540965 0.09484331538735825 0.0
0.6554591050654335 0.17182335127930837 0.0
-0.7526694320051586 0.20922603964353834 0.0
-0.7385144253572173 0.2344320487023298 0.0
-0.6833442498382201 0.31438272425617997 0.0
-0.7199387987804458 0.2626086974230214 0.0
0.5819827829381403 0.2753659417167668 0.0
0.5327588305141424 0.3178010175623356 0.0
0.6355415071450314 0.21264433294969398 0.0
0.6095233181372962 0.2471892929960752 0.0
-0.6551676011175286 0.3469934858845891 0.0
-0.6147821141678042 0.3843137166937616 0.0
-0.5027677945130398 0.4521501704972307 0.0
-0.573946709061472 0.41249036541445316 0.0
-0.0804414516515394 0.4467555277337142 0.0
-0.1180748640935486 0.4613314930691981 0.0
0.03849001794597504 0.3609677727740858 0.0
-0.03849001794597504 0.41986314993125573 0.0
0.17182335127930834 0.37691588430578776 0.0
0.09484331538735827 0.3494600876326167 0.0
0.30515668461264167 0.3961170111070408 0.0
0.22817664872069154 0.38941756927208027 0.0
0.4384900179459749 0.3705048238618957 0.0
0.36150998205402485 0.39104935624772635 0.0
0.5045821817934508 0.33959946845577293 0.0
0.4768260983254985 0.35671886797736996 0.0
-0.4745911457923481 0.4676557272402771 0.0
-0.46879002444883033 0.47035789097914443 0.0
-0.36150998205402496 0.4930574415310293 0.0
-0.438490017945975 0.4771642598097175 0.0
-0.22817664872069163 0.49172422140465544 0.0
-0.3051566846126417 0.4969587714822211 0.0
-0.1462515128142402 0.4715570571914689 0.0
-0.18559813626418106 0.4849178525740822 0.0


POINT_DATA 76
SCALARS element_ids double 1
LOOKUP_TABLE default
48
48
49
49
50
50
51
51
62
62
63
63
66
66
67
67
68
68
69
69
70
70
71
71
76
76
77
77
86
86
87
87
91
91
102
102
106
106
117
117
121
121
132
132
136
136
137
137
146
146
147
147
152
152
153
153
156
156
157
157
158
158
159
159
160
160
161
161
168
168
169
169
170
170
171
171

