# vtk DataFile Version 4.1
Header:
ASCII

DATASET UNSTRUCTURED_GRID
POINTS 125 double
-1 -1 -1
-0.5 -1 -1
0 -1 -1
0.5 -1 -1
1 -1 -1
-1 -0.5 -1
-0.5 -0.5 -1
0 -0.5 -1
0.5 -0.5 -1
1 -0.5 -1
-1 0 -1
-0.5 0 -1
0 0 -1
0.5 0 -1
1 0 -1
-1 0.5 -1
-0.5 0.5 -1
0 0.5 -1
0.5 0.5 -1
1 0.5 -1
-1 1 -1
-0.5 1 -1
0 1 -1
0.5 1 -1
1 1 -1
-1 -1 -0.5
-0.5 -1 -0.5
0 -1 -0.5
0.5 -1 -0.5
1 -1 -0.5
-1 -0.5 -0.5
-0.5 -0.5 -0.5
0 -0.5 -0.5
0.5 -0.5 -0.5
1 -0.5 -0.5
-1 0 -0.5
-0.5 0 -0.5
0 0 -0.5
0.5 0 -0.5
1 0 -0.5
-1 0.5 -0.5
-0.5 0.5 -0.5
0 0.5 -0.5
0.5 0.5 -0.5
1 0.5 -0.5
-1 1 -0.5
-0.5 1 -0.5
0 1 -0.5
0.5 1 -0.5
1 1 -0.5
-1 -1 0
-0.5 -1 0
0 -1 0
0.5 -1 0
1 -1 0
-1 -0.5 0
-0.5 -0.5 0
0 -0.5 0
0.5 -0.5 0
1 -0.5 0
-1 0 0
-0.5 0 0
0 0 0
0.5 0 0
1 0 0
-1 0.5 0
-0.5 0.5 0
0 0.5 0
0.5 0.5 0
1 0.5 0
-1 1 0
-0.5 1 0
0 1 0
0.5 1 0
1 1 0
-1 -1 0.5
-0.5 -1 0.5
0 -1 0.5
0.5 -1 0.5
1 -1 0.5
-1 -0.5 0.5
-0.5 -0.5 0.5
0 -0.5 0.5
0.5 -0.5 0.5
1 -0.5 0.5
-1 0 0.5
-0.5 0 0.5
0 0 0.5
0.5 0 0.5
1 0 0.5
-1 0.5 0.5
-0.5 0.5 0.5
0 0.5 0.5
0.5 0.5 0.5
1 0.5 0.5
-1 1 0.5
-0.5 1 0.5
0 1 0.5
0.5 1 0.5
1 1 0.5
-1 -1 1
-0.5 -1 1
0 -1 1
0.5 -1 1
1 -1 1
-1 -0.5 1
-0.5 -0.5 1
0 -0.5 1
0.5 -0.5 1
1 -0.5 1
-1 0 1
-0.5 0 1
0 0 1
0.5 0 1
1 0 1
-1 0.5 1
-0.5 0.5 1
0 0.5 1
0.5 0.5 1
1 0.5 1
-1 1 1
-0.5 1 1
0 1 1
0.5 1 1
1 1 1

CELLS 64 576
8 0 1 6 5 25 26 31 30
8 1 2 7 6 26 27 32 31
8 2 3 8 7 27 28 33 32
8 3 4 9 8 28 29 34 33
8 5 6 11 10 30 31 36 35
8 6 7 12 11 31 32 37 36
8 7 8 13 12 32 33 38 37
8 8 9 14 13 33 34 39 38
8 10 11 16 15 35 36 41 40
8 11 12 17 16 36 37 42 41
8 12 13 18 17 37 38 43 42
8 13 14 19 18 38 39 44 43
8 15 16 21 20 40 41 46 45
8 16 17 22 21 41 42 47 46
8 17 18 23 22 42 43 48 47
8 18 19 24 23 43 44 49 48
8 25 26 31 30 50 51 56 55
8 26 27 32 31 51 52 57 56
8 27 28 33 32 52 53 58 57
8 28 29 34 33 53 54 59 58
8 30 31 36 35 55 56 61 60
8 31 32 37 36 56 57 62 61
8 32 33 38 37 57 58 63 62
8 33 34 39 38 58 59 64 63
8 35 36 41 40 60 61 66 65
8 36 37 42 41 61 62 67 66
8 37 38 43 42 62 63 68 67
8 38 39 44 43 63 64 69 68
8 40 41 46 45 65 66 71 70
8 41 42 47 46 66 67 72 71
8 42 43 48 47 67 68 73 72
8 43 44 49 48 68 69 74 73
8 50 51 56 55 75 76 81 80
8 51 52 57 56 76 77 82 81
8 52 53 58 57 77 78 83 82
8 53 54 59 58 78 79 84 83
8 55 56 61 60 80 81 86 85
8 56 57 62 61 81 82 87 86
8 57 58 63 62 82 83 88 87
8 58 59 64 63 83 84 89 88
8 60 61 66 65 85 86 91 90
8 61 62 67 66 86 87 92 91
8 62 63 68 67 87 88 93 92
8 63 64 69 68 88 89 94 93
8 65 66 71 70 90 91 96 95
8 66 67 72 71 91 92 97 96
8 67 68 73 72 92 93 98 97
8 68 69 74 73 93 94 99 98
8 75 76 81 80 100 101 106 105
8 76 77 82 81 101 102 107 106
8 77 78 83 82 102 103 108 107
8 78 79 84 83 103 104 109 108
8 80 81 86 85 105 106 111 110
8 81 82 87 86 106 107 112 111
8 82 83 88 87 107 108 113 112
8 83 84 89 88 108 109 114 113
8 85 86 91 90 110 111 116 115
8 86 87 92 91 111 112 117 116
8 87 88 93 92 112 113 118 117
8 88 89 94 93 113 114 119 118
8 90 91 96 95 115 116 121 120
8 91 92 97 96 116 117 122 121
8 92 93 98 97 117 118 123 122
8 93 94 99 98 118 119 124 123

CELL_TYPES 64
12
12
12
12
12
12
12
12
12
12
12
12
12
12
12
12
12
12
12
12
12
12
12
12
12
12
12
12
12
12
12
12
12
12
12
12
12
12
12
12
12
12
12
12
12
12
12
12
12
12
12
12
12
12
12
12
12
12
12
12
12
12
12
12


POINT_DATA 125
SCALARS level_set double 1
LOOKUP_TABLE default
1.2420508075688772
1.01
0.9242135623730952
1.01
1.2420508075688772
1.01
0.734744871391589
0.6280339887498949
0.734744871391589
1.01
0.9242135623730952
0.6280339887498949
0.51
0.6280339887498949
0.9242135623730952
1.01
0.734744871391589
0.6280339887498949
0.734744871391589
1.01
1.2420508075688772
1.01
0.9242135623730952
1.01
1.2420508075688772
1.01
0.734744871391589
0.6280339887498949
0.734744871391589
1.01
0.734744871391589
0.3760254037844386
0.21710678118654758
0.3760254037844386
0.734744871391589
0.6280339887498949
0.21710678118654758
0.010000000000000009
0.21710678118654758
0.6280339887498949
0.734744871391589
0.3760254037844386
0.21710678118654758
0.3760254037844386
0.734744871391589
1.01
0.734744871391589
0.6280339887498949
0.734744871391589
1.01
0.9242135623730952
0.6280339887498949
0.51
0.6280339887498949
0.9242135623730952
0.6280339887498949
0.21710678118654758
0.010000000000000009
0.21710678118654758
0.6280339887498949
0.51
0.010000000000000009
-0.49
0.010000000000000009
0.51
0.6280339887498949
0.21710678118654758
0.010000000000000009
0.21710678118654758
0.6280339887498949
0.9242135623730952
0.6280339887498949
0.51
0.6280339887498949
0.9242135623730952
1.01
0.734744871391589
0.6280339887498949
0.734744871391589
1.01
0.734744871391589
0.3760254037844386
0.21710678118654758
0.3760254037844386
0.734744871391589
0.6280339887498949
0.21710678118654758
0.010000000000000009
0.21710678118654758
0.6280339887498949
0.734744871391589
0.3760254037844386
0.21710678118654758
0.3760254037844386
0.734744871391589
1.01
0.734744871391589
0.6280339887498949
0.734744871391589
1.01
1.2420508075688772
1.01
0.9242135623730952
1.01
1.2420508075688772
1.01
0.734744871391589
0.6280339887498949
0.734744871391589
1.01
0.9242135623730952
0.6280339887498949
0.51
0.6280339887498949
0.9242135623730952
1.01
0.734744871391589
0.6280339887498949
0.734744871391589
1.01
1.2420508075688772
1.01
0.9242135623730952
1.01
1.2420508075688772

