# vtk DataFile Version 4.1
Header:
ASCII

DATASET UNSTRUCTURED_GRID
POINTS 27 double
-0.5 -0.5 -0.5
0 -0.5 -0.5
0.5 -0.5 -0.5
-0.5 0 -0.5
0 0 -0.5
0.5 0 -0.5
-0.5 0.5 -0.5
0 0.5 -0.5
0.5 0.5 -0.5
-0.5 -0.5 0
0 -0.5 0
0.5 -0.5 0
-0.5 0 0
0 0 0
0.5 0 0
-0.5 0.5 0
0 0.5 0
0.5 0.5 0
-0.5 -0.5 0.5
0 -0.5 0.5
0.5 -0.5 0.5
-0.5 0 0.5
0 0 0.5
0.5 0 0.5
-0.5 0.5 0.5
0 0.5 0.5
0.5 0.5 0.5


POINT_DATA 27
SCALARS enriched_nodes_heaviside double 1
LOOKUP_TABLE default
0
0
0
0
0
0
0
0
0
0
0
0
0
0
0
0
0
0
0
0
0
0
0
0
0
0
0

