# vtk DataFile Version 4.1
Header:
ASCII

DATASET UNSTRUCTURED_GRID
POINTS 9261 double
-1 -1 -1
-0.9 -1 -1
-0.8 -1 -1
-0.7 -1 -1
-0.6 -1 -1
-0.5 -1 -1
-0.3999999999999999 -1 -1
-0.29999999999999993 -1 -1
-0.19999999999999996 -1 -1
-0.09999999999999998 -1 -1
0 -1 -1
0.10000000000000009 -1 -1
0.20000000000000018 -1 -1
0.30000000000000004 -1 -1
0.40000000000000013 -1 -1
0.5 -1 -1
0.6000000000000001 -1 -1
0.7000000000000002 -1 -1
0.8 -1 -1
0.9000000000000001 -1 -1
1 -1 -1
-1 -0.9 -1
-0.9 -0.9 -1
-0.8 -0.9 -1
-0.7 -0.9 -1
-0.6 -0.9 -1
-0.5 -0.9 -1
-0.3999999999999999 -0.9 -1
-0.29999999999999993 -0.9 -1
-0.19999999999999996 -0.9 -1
-0.09999999999999998 -0.9 -1
0 -0.9 -1
0.10000000000000009 -0.9 -1
0.20000000000000018 -0.9 -1
0.30000000000000004 -0.9 -1
0.40000000000000013 -0.9 -1
0.5 -0.9 -1
0.6000000000000001 -0.9 -1
0.7000000000000002 -0.9 -1
0.8 -0.9 -1
0.9000000000000001 -0.9 -1
1 -0.9 -1
-1 -0.8 -1
-0.9 -0.8 -1
-0.8 -0.8 -1
-0.7 -0.8 -1
-0.6 -0.8 -1
-0.5 -0.8 -1
-0.3999999999999999 -0.8 -1
-0.29999999999999993 -0.8 -1
-0.19999999999999996 -0.8 -1
-0.09999999999999998 -0.8 -1
0 -0.8 -1
0.10000000000000009 -0.8 -1
0.20000000000000018 -0.8 -1
0.30000000000000004 -0.8 -1
0.40000000000000013 -0.8 -1
0.5 -0.8 -1
0.6000000000000001 -0.8 -1
0.7000000000000002 -0.8 -1
0.8 -0.8 -1
0.9000000000000001 -0.8 -1
1 -0.8 -1
-1 -0.7 -1
-0.9 -0.7 -1
-0.8 -0.7 -1
-0.7 -0.7 -1
-0.6 -0.7 -1
-0.5 -0.7 -1
-0.3999999999999999 -0.7 -1
-0.29999999999999993 -0.7 -1
-0.19999999999999996 -0.7 -1
-0.09999999999999998 -0.7 -1
0 -0.7 -1
0.10000000000000009 -0.7 -1
0.20000000000000018 -0.7 -1
0.30000000000000004 -0.7 -1
0.40000000000000013 -0.7 -1
0.5 -0.7 -1
0.6000000000000001 -0.7 -1
0.7000000000000002 -0.7 -1
0.8 -0.7 -1
0.9000000000000001 -0.7 -1
1 -0.7 -1
-1 -0.6 -1
-0.9 -0.6 -1
-0.8 -0.6 -1
-0.7 -0.6 -1
-0.6 -0.6 -1
-0.5 -0.6 -1
-0.3999999999999999 -0.6 -1
-0.29999999999999993 -0.6 -1
-0.19999999999999996 -0.6 -1
-0.09999999999999998 -0.6 -1
0 -0.6 -1
0.10000000000000009 -0.6 -1
0.20000000000000018 -0.6 -1
0.30000000000000004 -0.6 -1
0.40000000000000013 -0.6 -1
0.5 -0.6 -1
0.6000000000000001 -0.6 -1
0.7000000000000002 -0.6 -1
0.8 -0.6 -1
0.9000000000000001 -0.6 -1
1 -0.6 -1
-1 -0.5 -1
-0.9 -0.5 -1
-0.8 -0.5 -1
-0.7 -0.5 -1
-0.6 -0.5 -1
-0.5 -0.5 -1
-0.3999999999999999 -0.5 -1
-0.29999999999999993 -0.5 -1
-0.19999999999999996 -0.5 -1
-0.09999999999999998 -0.5 -1
0 -0.5 -1
0.10000000000000009 -0.5 -1
0.20000000000000018 -0.5 -1
0.30000000000000004 -0.5 -1
0.40000000000000013 -0.5 -1
0.5 -0.5 -1
0.6000000000000001 -0.5 -1
0.7000000000000002 -0.5 -1
0.8 -0.5 -1
0.9000000000000001 -0.5 -1
1 -0.5 -1
-1 -0.3999999999999999 -1
-0.9 -0.3999999999999999 -1
-0.8 -0.3999999999999999 -1
-0.7 -0.3999999999999999 -1
-0.6 -0.3999999999999999 -1
-0.5 -0.3999999999999999 -1
-0.3999999999999999 -0.3999999999999999 -1
-0.29999999999999993 -0.3999999999999999 -1
-0.19999999999999996 -0.3999999999999999 -1
-0.09999999999999998 -0.3999999999999999 -1
0 -0.3999999999999999 -1
0.10000000000000009 -0.3999999999999999 -1
0.20000000000000018 -0.3999999999999999 -1
0.30000000000000004 -0.3999999999999999 -1
0.40000000000000013 -0.3999999999999999 -1
0.5 -0.3999999999999999 -1
0.6000000000000001 -0.3999999999999999 -1
0.7000000000000002 -0.3999999999999999 -1
0.8 -0.3999999999999999 -1
0.9000000000000001 -0.3999999999999999 -1
1 -0.3999999999999999 -1
-1 -0.29999999999999993 -1
-0.9 -0.29999999999999993 -1
-0.8 -0.29999999999999993 -1
-0.7 -0.29999999999999993 -1
-0.6 -0.29999999999999993 -1
-0.5 -0.29999999999999993 -1
-0.3999999999999999 -0.29999999999999993 -1
-0.29999999999999993 -0.29999999999999993 -1
-0.19999999999999996 -0.29999999999999993 -1
-0.09999999999999998 -0.29999999999999993 -1
0 -0.29999999999999993 -1
0.10000000000000009 -0.29999999999999993 -1
0.20000000000000018 -0.29999999999999993 -1
0.30000000000000004 -0.29999999999999993 -1
0.40000000000000013 -0.29999999999999993 -1
0.5 -0.29999999999999993 -1
0.6000000000000001 -0.29999999999999993 -1
0.7000000000000002 -0.29999999999999993 -1
0.8 -0.29999999999999993 -1
0.9000000000000001 -0.29999999999999993 -1
1 -0.29999999999999993 -1
-1 -0.19999999999999996 -1
-0.9 -0.19999999999999996 -1
-0.8 -0.19999999999999996 -1
-0.7 -0.19999999999999996 -1
-0.6 -0.19999999999999996 -1
-0.5 -0.19999999999999996 -1
-0.3999999999999999 -0.19999999999999996 -1
-0.29999999999999993 -0.19999999999999996 -1
-0.19999999999999996 -0.19999999999999996 -1
-0.09999999999999998 -0.19999999999999996 -1
0 -0.19999999999999996 -1
0.10000000000000009 -0.19999999999999996 -1
0.20000000000000018 -0.19999999999999996 -1
0.30000000000000004 -0.19999999999999996 -1
0.40000000000000013 -0.19999999999999996 -1
0.5 -0.19999999999999996 -1
0.6000000000000001 -0.19999999999999996 -1
0.7000000000000002 -0.19999999999999996 -1
0.8 -0.19999999999999996 -1
0.9000000000000001 -0.19999999999999996 -1
1 -0.19999999999999996 -1
-1 -0.09999999999999998 -1
-0.9 -0.09999999999999998 -1
-0.8 -0.09999999999999998 -1
-0.7 -0.09999999999999998 -1
-0.6 -0.09999999999999998 -1
-0.5 -0.09999999999999998 -1
-0.3999999999999999 -0.09999999999999998 -1
-0.29999999999999993 -0.09999999999999998 -1
-0.19999999999999996 -0.09999999999999998 -1
-0.09999999999999998 -0.09999999999999998 -1
0 -0.09999999999999998 -1
0.10000000000000009 -0.09999999999999998 -1
0.20000000000000018 -0.09999999999999998 -1
0.30000000000000004 -0.09999999999999998 -1
0.40000000000000013 -0.09999999999999998 -1
0.5 -0.09999999999999998 -1
0.6000000000000001 -0.09999999999999998 -1
0.7000000000000002 -0.09999999999999998 -1
0.8 -0.09999999999999998 -1
0.9000000000000001 -0.09999999999999998 -1
1 -0.09999999999999998 -1
-1 0 -1
-0.9 0 -1
-0.8 0 -1
-0.7 0 -1
-0.6 0 -1
-0.5 0 -1
-0.3999999999999999 0 -1
-0.29999999999999993 0 -1
-0.19999999999999996 0 -1
-0.09999999999999998 0 -1
0 0 -1
0.10000000000000009 0 -1
0.20000000000000018 0 -1
0.30000000000000004 0 -1
0.40000000000000013 0 -1
0.5 0 -1
0.6000000000000001 0 -1
0.7000000000000002 0 -1
0.8 0 -1
0.9000000000000001 0 -1
1 0 -1
-1 0.10000000000000009 -1
-0.9 0.10000000000000009 -1
-0.8 0.10000000000000009 -1
-0.7 0.10000000000000009 -1
-0.6 0.10000000000000009 -1
-0.5 0.10000000000000009 -1
-0.3999999999999999 0.10000000000000009 -1
-0.29999999999999993 0.10000000000000009 -1
-0.19999999999999996 0.10000000000000009 -1
-0.09999999999999998 0.10000000000000009 -1
0 0.10000000000000009 -1
0.10000000000000009 0.10000000000000009 -1
0.20000000000000018 0.10000000000000009 -1
0.30000000000000004 0.10000000000000009 -1
0.40000000000000013 0.10000000000000009 -1
0.5 0.10000000000000009 -1
0.6000000000000001 0.10000000000000009 -1
0.7000000000000002 0.10000000000000009 -1
0.8 0.10000000000000009 -1
0.9000000000000001 0.10000000000000009 -1
1 0.10000000000000009 -1
-1 0.20000000000000018 -1
-0.9 0.20000000000000018 -1
-0.8 0.20000000000000018 -1
-0.7 0.20000000000000018 -1
-0.6 0.20000000000000018 -1
-0.5 0.20000000000000018 -1
-0.3999999999999999 0.20000000000000018 -1
-0.29999999999999993 0.20000000000000018 -1
-0.19999999999999996 0.20000000000000018 -1
-0.09999999999999998 0.20000000000000018 -1
0 0.20000000000000018 -1
0.10000000000000009 0.20000000000000018 -1
0.20000000000000018 0.20000000000000018 -1
0.30000000000000004 0.20000000000000018 -1
0.40000000000000013 0.20000000000000018 -1
0.5 0.20000000000000018 -1
0.6000000000000001 0.20000000000000018 -1
0.7000000000000002 0.20000000000000018 -1
0.8 0.20000000000000018 -1
0.9000000000000001 0.20000000000000018 -1
1 0.20000000000000018 -1
-1 0.30000000000000004 -1
-0.9 0.30000000000000004 -1
-0.8 0.30000000000000004 -1
-0.7 0.30000000000000004 -1
-0.6 0.30000000000000004 -1
-0.5 0.30000000000000004 -1
-0.3999999999999999 0.30000000000000004 -1
-0.29999999999999993 0.30000000000000004 -1
-0.19999999999999996 0.30000000000000004 -1
-0.09999999999999998 0.30000000000000004 -1
0 0.30000000000000004 -1
0.10000000000000009 0.30000000000000004 -1
0.20000000000000018 0.30000000000000004 -1
0.30000000000000004 0.30000000000000004 -1
0.40000000000000013 0.30000000000000004 -1
0.5 0.30000000000000004 -1
0.6000000000000001 0.30000000000000004 -1
0.7000000000000002 0.30000000000000004 -1
0.8 0.30000000000000004 -1
0.9000000000000001 0.30000000000000004 -1
1 0.30000000000000004 -1
-1 0.40000000000000013 -1
-0.9 0.40000000000000013 -1
-0.8 0.40000000000000013 -1
-0.7 0.40000000000000013 -1
-0.6 0.40000000000000013 -1
-0.5 0.40000000000000013 -1
-0.3999999999999999 0.40000000000000013 -1
-0.29999999999999993 0.40000000000000013 -1
-0.19999999999999996 0.40000000000000013 -1
-0.09999999999999998 0.40000000000000013 -1
0 0.40000000000000013 -1
0.10000000000000009 0.40000000000000013 -1
0.20000000000000018 0.40000000000000013 -1
0.30000000000000004 0.40000000000000013 -1
0.40000000000000013 0.40000000000000013 -1
0.5 0.40000000000000013 -1
0.6000000000000001 0.40000000000000013 -1
0.7000000000000002 0.40000000000000013 -1
0.8 0.40000000000000013 -1
0.9000000000000001 0.40000000000000013 -1
1 0.40000000000000013 -1
-1 0.5 -1
-0.9 0.5 -1
-0.8 0.5 -1
-0.7 0.5 -1
-0.6 0.5 -1
-0.5 0.5 -1
-0.3999999999999999 0.5 -1
-0.29999999999999993 0.5 -1
-0.19999999999999996 0.5 -1
-0.09999999999999998 0.5 -1
0 0.5 -1
0.10000000000000009 0.5 -1
0.20000000000000018 0.5 -1
0.30000000000000004 0.5 -1
0.40000000000000013 0.5 -1
0.5 0.5 -1
0.6000000000000001 0.5 -1
0.7000000000000002 0.5 -1
0.8 0.5 -1
0.9000000000000001 0.5 -1
1 0.5 -1
-1 0.6000000000000001 -1
-0.9 0.6000000000000001 -1
-0.8 0.6000000000000001 -1
-0.7 0.6000000000000001 -1
-0.6 0.6000000000000001 -1
-0.5 0.6000000000000001 -1
-0.3999999999999999 0.6000000000000001 -1
-0.29999999999999993 0.6000000000000001 -1
-0.19999999999999996 0.6000000000000001 -1
-0.09999999999999998 0.6000000000000001 -1
0 0.6000000000000001 -1
0.10000000000000009 0.6000000000000001 -1
0.20000000000000018 0.6000000000000001 -1
0.30000000000000004 0.6000000000000001 -1
0.40000000000000013 0.6000000000000001 -1
0.5 0.6000000000000001 -1
0.6000000000000001 0.6000000000000001 -1
[...]
POINT_DATA 9261
SCALARS level_set double 1
LOOKUP_TABLE default
1.2420508075688772
1.186305461424021
1.134807680927192
1.08797338380595
1.0462291495737217
1.01
0.9796938456699069
0.9556832294800961
0.93828568570857
0.9277446878757825
0.9242135623730952
0.9277446878757825
0.93828568570857
0.9556832294800961
0.9796938456699069
1.01
1.0462291495737217
1.08797338380595
1.134807680927192
1.1863054614240212
1.2420508075688772
1.186305461424021
1.1286414056238645
1.0752475842498528
1.02657508881031
0.9830919862656236
0.9452700094407325
0.9135668847618199
0.8884048752090221
0.8701470508735443
0.8590737563232043
0.8553624047073711
0.8590737563232043
0.8701470508735443
0.8884048752090223
0.9135668847618201
0.9452700094407325
0.9830919862656236
1.0265750888103102
1.0752475842498528
1.1286414056238645
1.186305461424021
1.134807680927192
1.0752475842498528
1.01996688705415
0.9694519519326423
0.9242135623730952
0.884772708486752
0.8516407864998738
0.8252946437965905
0.8061481396815722
0.7945232578665129
0.7906248474865698
0.7945232578665129
0.8061481396815722
0.8252946437965907
0.8516407864998738
0.884772708486752
0.9242135623730952
0.9694519519326426
1.01996688705415
1.0752475842498528
1.134807680927192
1.08797338380595
1.02657508881031
0.9694519519326423
0.9171247279470289
0.8701470508735443
0.8290905958272918
0.7945232578665129
0.7669805089976534
0.746931687685298
0.734744871391589
0.7306555615733703
0.734744871391589
0.7469316876852983
0.7669805089976536
0.7945232578665129
0.8290905958272918
0.8701470508735443
0.9171247279470289
0.9694519519326423
1.0265750888103102
1.08797338380595
1.0462291495737217
0.9830919862656236
0.9242135623730952
0.8701470508735443
0.8214877048604001
0.7788577540449519
0.7428828005937953
0.7141594578792296
0.6932159566199232
0.6804699910719625
0.67619037896906
0.6804699910719625
0.6932159566199232
0.7141594578792296
0.7428828005937953
0.7788577540449519
0.8214877048604001
0.8701470508735445
0.9242135623730952
0.9830919862656238
1.0462291495737217
1.01
0.9452700094407325
0.884772708486752
0.8290905958272918
0.7788577540449519
0.734744871391589
0.6974342087037917
0.6675836902790224
0.6457816691600546
0.6324972160321825
0.6280339887498949
0.6324972160321825
0.6457816691600546
0.6675836902790226
0.6974342087037917
0.734744871391589
0.7788577540449522
0.829090595827292
0.884772708486752
0.9452700094407325
1.01
0.9796938456699069
0.9135668847618199
0.8516407864998738
0.7945232578665129
0.7428828005937953
0.6974342087037917
0.6589125293076057
0.6280339887498949
0.6054451150103322
0.5916653826391967
0.5870329614269008
0.5916653826391967
0.6054451150103322
0.6280339887498949
0.6589125293076057
0.6974342087037917
0.7428828005937953
0.7945232578665129
0.8516407864998738
0.9135668847618201
0.9796938456699069
0.9556832294800961
0.8884048752090221
0.8252946437965905
0.7669805089976534
0.7141594578792296
0.6675836902790224
0.6280339887498949
0.5962780491200215
0.5730145812734648
0.5588088481701514
0.5540306508910549
0.5588088481701516
0.573014581273465
0.5962780491200215
0.6280339887498949
0.6675836902790224
0.7141594578792296
0.7669805089976536
0.8252946437965905
0.8884048752090223
0.9556832294800961
0.93828568570857
0.8701470508735443
0.8061481396815722
0.746931687685298
0.6932159566199232
0.6457816691600546
0.6054451150103322
0.5730145812734648
0.5492304845413265
0.5346950765959599
0.529803902718557
0.5346950765959599
0.5492304845413265
0.5730145812734648
0.6054451150103324
0.6457816691600546
0.6932159566199232
0.7469316876852983
0.8061481396815722
0.8701470508735445
0.93828568570857
0.9277446878757825
0.8590737563232043
0.7945232578665129
0.734744871391589
0.6804699910719625
0.6324972160321825
0.5916653826391967
0.5588088481701514
0.5346950765959599
0.5199504938362078
0.514987562112089
0.5199504938362078
0.5346950765959599
0.5588088481701516
0.5916653826391969
0.6324972160321825
0.6804699910719625
0.7347448713915892
0.7945232578665129
0.8590737563232043
0.9277446878757825
0.9242135623730952
0.8553624047073711
0.7906248474865698
0.7306555615733703
0.67619037896906
0.6280339887498949
0.5870329614269008
0.5540306508910549
0.529803902718557
0.514987562112089
0.51
0.514987562112089
0.529803902718557
0.5540306508910551
0.587032961426901
0.6280339887498949
0.6761903789690602
0.7306555615733703
0.7906248474865698
0.8553624047073711
0.9242135623730952
0.9277446878757825
0.8590737563232043
0.7945232578665129
0.734744871391589
0.6804699910719625
0.6324972160321825
0.5916653826391967
0.5588088481701516
0.5346950765959599
0.5199504938362078
0.514987562112089
0.5199504938362078
0.5346950765959599
0.5588088481701516
0.5916653826391969
0.6324972160321825
0.6804699910719625
0.7347448713915892
0.7945232578665129
0.8590737563232043
0.9277446878757825
0.93828568570857
0.8701470508735443
0.8061481396815722
0.7469316876852983
0.6932159566199232
0.6457816691600546
0.6054451150103322
0.573014581273465
0.5492304845413265
0.5346950765959599
0.529803902718557
0.5346950765959599
0.5492304845413265
0.573014581273465
0.6054451150103324
0.6457816691600546
0.6932159566199232
0.7469316876852983
0.8061481396815722
0.8701470508735445
0.93828568570857
0.9556832294800961
0.8884048752090223
0.8252946437965907
0.7669805089976536
0.7141594578792296
0.6675836902790226
0.6280339887498949
0.5962780491200215
0.5730145812734648
0.5588088481701516
0.5540306508910551
0.5588088481701516
0.573014581273465
0.5962780491200217
0.6280339887498949
0.6675836902790226
0.7141594578792296
0.7669805089976536
0.8252946437965907
0.8884048752090223
0.9556832294800961
0.9796938456699069
0.9135668847618201
0.8516407864998738
0.7945232578665129
0.7428828005937953
0.6974342087037917
0.6589125293076057
0.6280339887498949
0.6054451150103324
0.5916653826391969
0.587032961426901
0.5916653826391969
0.6054451150103324
0.6280339887498949
0.6589125293076059
0.6974342087037917
0.7428828005937953
0.7945232578665131
0.8516407864998738
0.9135668847618201
0.9796938456699069
1.01
0.9452700094407325
0.884772708486752
0.8290905958272918
0.7788577540449519
0.734744871391589
0.6974342087037917
0.6675836902790224
0.6457816691600546
0.6324972160321825
0.6280339887498949
0.6324972160321825
0.6457816691600546
0.6675836902790226
0.6974342087037917
0.734744871391589
0.7788577540449522
0.829090595827292
0.884772708486752
0.9452700094407325
1.01
1.0462291495737217
0.9830919862656236
0.9242135623730952
0.8701470508735443
0.8214877048604001
0.7788577540449522
0.7428828005937953
0.7141594578792296
0.6932159566199232
0.6804699910719625
0.6761903789690602
0.6804699910719625
0.6932159566199232
0.7141594578792296
0.7428828005937953
0.7788577540449522
0.8214877048604001
0.8701470508735445
0.9242135623730952
0.9830919862656238
1.0462291495737217
1.08797338380595
1.0265750888103102
0.9694519519326426
0.9171247279470289
0.8701470508735445
0.829090595827292
0.7945232578665129
0.7669805089976536
0.7469316876852983
0.7347448713915892
0.7306555615733703
0.7347448713915892
0.7469316876852983
0.7669805089976536
0.7945232578665131
0.829090595827292
0.8701470508735445
0.9171247279470289
0.9694519519326426
1.0265750888103105
1.08797338380595
1.134807680927192
1.0752475842498528
1.01996688705415
0.9694519519326423
0.9242135623730952
0.884772708486752
0.8516407864998738
0.8252946437965905
0.8061481396815722
0.7945232578665129
0.7906248474865698
0.7945232578665129
0.8061481396815722
0.8252946437965907
0.8516407864998738
0.884772708486752
0.9242135623730952
0.9694519519326426
1.01996688705415
1.0752475842498528
1.134807680927192
1.1863054614240212
1.1286414056238645
1.0752475842498528
1.0265750888103102
0.9830919862656238
0.9452700094407325
0.9135668847618201
0.8884048752090223
0.8701470508735445
0.8590737563232043
0.8553624047073711
0.8590737563232043
0.8701470508735445
0.8884048752090223
0.9135668847618201
0.9452700094407325
0.9830919862656238
1.0265750888103105
1.0752475842498528
1.1286414056238647
1.1863054614240212
1.2420508075688772
1.186305461424021
1.134807680927192
1.08797338380595
1.0462291495737217
1.01
0.9796938456699069
0.9556832294800961
0.93828568570857
0.9277446878757825
0.9242135623730952
0.9277446878757825
0.93828568570857
0.9556832294800961
0.9796938456699069
1.01
1.0462291495737217
1.08797338380595
1.134807680927192
1.1863054614240212
1.2420508075688772
1.186305461424021
1.1286414056238645
1.0752475842498528
1.02657508881031
0.9830919862656236
0.9452700094407325
0.9135668847618199
0.8884048752090221
0.8701470508735443
0.8590737563232043
0.8553624047073711
0.8590737563232043
0.8701470508735443
0.8884048752090223
0.9135668847618201
0.9452700094407325
0.9830919862656236
1.0265750888103102
1.0752475842498528
1.1286414056238645
1.186305461424021
1.1286414056238645
1.0688457268119895
1.013329637837291
0.962583904633395
0.9171247279470289
0.8774794331177345
0.8441664064126333
0.8176696830622021
0.7984098726725126
0.7867145334803705
0.7827922061357855
0.7867145334803705
0.7984098726725126
0.8176696830622021
0.8441664064126335
0.8774794331177345
0.9171247279470289
0.962583904633395
1.013329637837291
1.0688457268119897
1.1286414056238645
1.0752475842498528
1.013329637837291
0.9556832294800961
0.9028388277184121
0.8553624047073711
0.8138404810405298
0.7788577540449522
0.7509673645990858
0.7306555615733703
0.7183045973594573
0.7141594578792296
0.7183045973594573
0.7306555615733703
0.7509673645990858
0.7788577540449522
0.8138404810405298
0.8553624047073711
0.9028388277184121
0.9556832294800961
1.0133296378372911
1.0752475842498528
1.02657508881031
0.962583904633395
0.9028388277184121
0.8479088160259651
0.7984098726725126
0.7549899597988732
0.7183045973594573
0.6889826122551597
0.6675836902790224
0.6545523142259597
0.6501754250991381
0.6545523142259597
0.6675836902790226
0.6889826122551597
0.7183045973594573
0.7549899597988732
0.7984098726725126
0.8479088160259654
0.9028388277184121
0.962583904633395
1.02657508881031
0.9830919862656236
0.9171247279470289
0.8553624047073711
0.7984098726725126
0.7469316876852983
0.7016375287812984
0.6632562594670797
0.6324972160321825
0.6100000000000001
0.5962780491200217
0.5916653826391967
0.5962780491200217
0.6100000000000001
0.6324972160321825
0.6632562594670797
0.7016375287812984
0.7469316876852983
0.7984098726725126
0.8553624047073711
0.9171247279470289
0.9830919862656236
0.9452700094407325
0.8774794331177345
0.8138404810405298
0.7549899597988732
0.7016375287812984
0.6545523142259597
0.6145361017187261
0.5823805294763609
0.5588088481701516
0.54440804327886
0.5395630140987
0.54440804327886
0.5588088481701516
0.5823805294763609
0.6145361017187261
0.6545523142259597
0.7016375287812986
0.7549899597988734
0.8138404810405298
0.8774794331177345
0.9452700094407325
0.9135668847618199
0.8441664064126333
0.7788577540449522
0.7183045973594573
0.6632562594670797
0.6145361017187261
0.5730145812734648
0.5395630140987
0.514987562112089
0.4999494936611666
0.4948857801796105
0.4999494936611666
0.514987562112089
0.5395630140987
0.573014581273465
0.6145361017187261
0.6632562594670797
0.7183045973594573
0.7788577540449522
0.8441664064126335
0.9135668847618199
0.8884048752090221
0.8176696830622021
0.7509673645990858
0.6889826122551597
0.6324972160321825
0.5823805294763609
0.5395630140987
0.50498743710662
0.47953597148326577
0.46393920141694567
0.4586832980505138
0.46393920141694567
0.4795359714832659
0.50498743710662
0.5395630140987
0.5823805294763609
0.6324972160321825
0.6889826122551597
0.7509673645990858
0.8176696830622023
0.8884048752090221
0.8701470508735443
0.7984098726725126
0.7306555615733703
0.6675836902790224
0.6100000000000001
0.5588088481701516
0.514987562112089
0.47953597148326577
0.45339811320566037
0.43736184954957036
0.43195444572928876
0.43736184954957047
0.4533981132056605
0.4795359714832659
0.5149875621120892
0.5588088481701516
0.6100000000000001
0.6675836902790226
0.7306555615733703
0.7984098726725126
0.8701470508735443
0.8590737563232043
0.7867145334803705
0.7183045973594573
0.6545523142259597
0.5962780491200217
0.54440804327886
0.4999494936611666
0.46393920141694567
0.43736184954957036
0.4210433579144299
0.41553851381374174
0.4210433579144299
0.43736184954957047
0.46393920141694567
0.4999494936611667
0.54440804327886
0.5962780491200217
0.6545523142259599
0.7183045973594573
0.7867145334803707
0.8590737563232043
0.8553624047073711
0.7827922061357855
0.7141594578792296
0.6501754250991381
0.5916653826391967
0.5395630140987
0.4948857801796105
0.4586832980505138
0.43195444572928876
0.41553851381374174
0.41000000000000003
0.41553851381374174
0.43195444572928876
0.4586832980505139
0.4948857801796106
0.5395630140987
0.5916653826391969
0.6501754250991381
0.7141594578792296
0.7827922061357857
0.8553624047073711
0.8590737563232043
0.7867145334803705
0.7183045973594573
0.6545523142259597
0.5962780491200217
0.54440804327886
0.4999494936611666
0.46393920141694567
0.43736184954957047
0.4210433579144299
0.41553851381374174
0.4210433579144299
0.43736184954957047
0.4639392014169458
0.4999494936611667
0.54440804327886
0.5962780491200217
0.6545523142259599
0.7183045973594573
0.7867145334803707
0.8590737563232043
0.8701470508735443
0.7984098726725126
0.7306555615733703
0.6675836902790226
0.6100000000000001
0.5588088481701516
0.514987562112089
0.4795359714832659
0.4533981132056605
0.43736184954957047
0.43195444572928876
0.43736184954957047
0.4533981132056605
0.4795359714832659
0.5149875621120892
0.5588088481701516
0.6100000000000001
0.6675836902790226
0.7306555615733703
0.7984098726725126
0.8701470508735443
0.8884048752090223
0.8176696830622021
0.7509673645990858
0.6889826122551597
0.6324972160321825
0.5823805294763609
0.5395630140987
0.50498743710662
0.4795359714832659
0.46393920141694567
0.4586832980505139
0.4639392014169458
0.4795359714832659
0.50498743710662
0.5395630140987
0.5823805294763609
0.6324972160321825
0.6889826122551597
0.7509673645990858
0.8176696830622023
0.8884048752090223
0.9135668847618201
0.8441664064126335
0.7788577540449522
0.7183045973594573
0.6632562594670797
0.6145361017187261
0.573014581273465
0.5395630140987
0.5149875621120892
0.4999494936611667
0.4948857801796106
0.4999494936611667
0.5149875621120892
0.5395630140987
0.573014581273465
0.6145361017187261
0.6632562594670797
0.7183045973594573
0.7788577540449522
0.8441664064126335
0.9135668847618201
0.9452700094407325
0.8774794331177345
0.8138404810405298
0.7549899597988732
0.7016375287812984
0.6545523142259597
0.6145361017187261
0.5823805294763609
0.5588088481701516
0.54440804327886
0.5395630140987
0.54440804327886
0.5588088481701516
0.5823805294763609
0.6145361017187261
0.6545523142259597
0.7016375287812986
0.7549899597988734
0.8138404810405298
0.8774794331177345
0.9452700094407325
0.9830919862656236
0.9171247279470289
0.8553624047073711
0.7984098726725126
0.7469316876852983
0.7016375287812986
0.6632562594670797
0.6324972160321825
0.6100000000000001
0.5962780491200217
0.5916653826391969
0.5962780491200217
0.6100000000000001
0.6324972160321825
0.6632562594670797
0.7016375287812986
0.7469316876852983
0.7984098726725126
0.8553624047073711
0.9171247279470289
0.9830919862656236
1.0265750888103102
0.962583904633395
0.9028388277184121
0.8479088160259654
0.7984098726725126
0.7549899597988734
0.7183045973594573
0.6889826122551597
0.6675836902790226
0.6545523142259599
0.6501754250991381
0.6545523142259599
0.6675836902790226
0.6889826122551597
0.7183045973594573
0.7549899597988734
0.7984098726725126
0.8479088160259654
0.9028388277184121
0.962583904633395
1.0265750888103102
1.0752475842498528
1.013329637837291
0.9556832294800961
0.9028388277184121
0.8553624047073711
0.8138404810405298
0.7788577540449522
0.7509673645990858
0.7306555615733703
0.7183045973594573
0.7141594578792296
0.7183045973594573
0.7306555615733703
0.7509673645990858
0.7788577540449522
0.8138404810405298
0.8553624047073711
0.9028388277184121
0.9556832294800961
1.0133296378372911
1.0752475842498528
1.1286414056238645
1.0688457268119897
1.0133296378372911
0.962583904633395
0.9171247279470289
0.8774794331177345
0.8441664064126335
0.8176696830622023
0.7984098726725126
0.7867145334803707
0.7827922061357857
0.7867145334803707
0.7984098726725126
0.8176696830622023
0.8441664064126335
0.8774794331177345
0.9171247279470289
0.962583904633395
1.0133296378372911
1.0688457268119897
1.1286414056238645
1.186305461424021
1.1286414056238645
1.0752475842498528
1.02657508881031
0.9830919862656236
0.9452700094407325
0.9135668847618199
0.8884048752090221
0.8701470508735443
0.8590737563232043
0.8553624047073711
0.8590737563232043
0.8701470508735443
0.8884048752090223
0.9135668847618201
0.9452700094407325
0.9830919862656236
1.0265750888103102
1.0752475842498528
1.1286414056238645
1.186305461424021
1.134807680927192
1.0752475842498528
1.01996688705415
0.9694519519326423
0.9242135623730952
0.884772708486752
0.8516407864998738
0.8252946437965905
0.8061481396815722
0.7945232578665129
0.7906248474865698
0.7945232578665129
0.8061481396815722
0.8252946437965907
0.8516407864998738
0.884772708486752
0.9242135623730952
0.9694519519326426
1.01996688705415
1.0752475842498528
1.134807680927192
1.0752475842498528
1.013329637837291
0.9556832294800961
0.9028388277184121
0.8553624047073711
0.8138404810405298
0.7788577540449522
0.7509673645990858
0.7306555615733703
0.7183045973594573
0.7141594578792296
0.7183045973594573
0.7306555615733703
0.7509673645990858
0.7788577540449522
0.8138404810405298
0.8553624047073711
0.9028388277184121
0.9556832294800961
1.0133296378372911
1.0752475842498528
1.01996688705415
0.9556832294800961
0.8956406460551021
0.8404134695650072
0.7906248474865698
0.7469316876852983
0.7100000000000002
0.6804699910719625
0.6589125293076059
0.6457816691600549
0.6413708498984763
0.6457816691600549
0.6589125293076059
0.6804699910719627
0.7100000000000002
0.7469316876852983
0.7906248474865698
0.8404134695650072
0.8956406460551021
0.9556832294800963
1.01996688705415
0.9694519519326423
0.9028388277184121
0.8404134695650072
0.7827922061357855
0.7306555615733703
0.6847340124470731
0.6457816691600546
0.6145361017187261
0.5916653826391967
0.5777078252031311
0.573014581273465
0.5777078252031311
0.5916653826391969
0.6145361017187261
0.6457816691600546
0.6847340124470731
0.7306555615733703
0.7827922061357857
0.8404134695650072
0.9028388277184121
0.9694519519326423
0.9242135623730952
0.8553624047073711
0.7906248474865698
0.7306555615733703
0.6761903789690602
0.6280339887498949
0.587032961426901
0.5540306508910551
0.529803902718557
0.5149875621120892
0.51
0.5149875621120892
0.529803902718557
0.5540306508910551
0.587032961426901
0.6280339887498949
0.6761903789690602
0.7306555615733705
0.7906248474865698
0.8553624047073711
0.9242135623730952
0.884772708486752
0.8138404810405298
0.7469316876852983
0.6847340124470731
0.6280339887498949
0.5777078252031311
0.5346950765959599
0.4999494936611666
0.47436507609929557
0.4586832980505139
0.4533981132056605
0.4586832980505139
0.47436507609929557
0.4999494936611667
0.5346950765959599
0.5777078252031311
0.6280339887498949
0.6847340124470731
0.7469316876852983
0.81384048104053
0.884772708486752
0.8516407864998738
0.7788577540449522
0.7100000000000002
0.6457816691600546
0.587032961426901
0.5346950765959599
0.4897958971132712
0.45339811320566037
0.4265151389911681
0.41000000000000003
0.40442719099991586
0.41000000000000003
0.4265151389911681
0.4533981132056605
0.4897958971132713
0.5346950765959599
0.587032961426901
0.6457816691600549
0.7100000000000002
0.7788577540449522
0.8516407864998738
0.8252946437965905
0.7509673645990858
0.6804699910719625
0.6145361017187261
0.5540306508910551
0.4999494936611666
0.45339811320566037
0.41553851381374174
0.38749643873921225
0.37023252670426277
0.3644003745317532
0.37023252670426277
0.38749643873921225
0.41553851381374174
0.4533981132056605
0.4999494936611666
0.5540306508910551
0.6145361017187261
0.6804699910719625
0.7509673645990858
0.8252946437965905
0.8061481396815722
0.7306555615733703
0.6589125293076059
0.5916653826391967
0.529803902718557
0.47436507609929557
0.4265151389911681
0.38749643873921225
0.35852813742385714
0.34066238629180756
0.33462112512353226
0.34066238629180756
0.35852813742385714
0.38749643873921225
0.4265151389911681