# vtk DataFile Version 4.1
Header:
ASCII

DATASET UNSTRUCTURED_GRID
POINTS 64000 double
-0.9749999999999999 -0.9749999999999999 -0.9749999999999999
-0.975 -0.975 -0.9249999999999999
-0.9750000000000001 -0.9750000000000001 -0.8750000000000001
-0.9749999999999999 -0.9749999999999999 -0.8249999999999998
-0.975 -0.975 -0.7749999999999999
-0.9749999999999999 -0.9749999999999999 -0.7249999999999999
-0.975 -0.975 -0.6749999999999999
-0.975 -0.975 -0.625
-0.9750000000000001 -0.9750000000000001 -0.575
-0.9749999999999999 -0.9749999999999999 -0.525
-0.9750000000000001 -0.925 -0.975
-0.9750000000000001 -0.9249999999999999 -0.9249999999999999
-0.9750000000000002 -0.925 -0.8750000000000001
-0.975 -0.925 -0.825
-0.9750000000000001 -0.9249999999999999 -0.775
-0.975 -0.9250000000000002 -0.7250000000000001
-0.9750000000000001 -0.9249999999999999 -0.6749999999999999
-0.975 -0.9249999999999999 -0.625
-0.9750000000000001 -0.9249999999999999 -0.575
-0.975 -0.9249999999999999 -0.5249999999999999
-0.975 -0.875 -0.975
-0.975 -0.875 -0.9249999999999999
-0.9749999999999998 -0.8749999999999998 -0.8749999999999998
-0.975 -0.8749999999999998 -0.825
-0.9749999999999999 -0.8749999999999999 -0.775
-0.9749999999999999 -0.8749999999999999 -0.7249999999999999
-0.9749999999999999 -0.8749999999999999 -0.6749999999999998
-0.9749999999999998 -0.8749999999999998 -0.6249999999999998
-0.975 -0.875 -0.575
-0.9749999999999999 -0.8749999999999999 -0.5249999999999999
-0.9749999999999999 -0.8249999999999998 -0.9749999999999999
-0.975 -0.825 -0.925
-0.9749999999999999 -0.825 -0.8749999999999998
-0.9749999999999999 -0.825 -0.8249999999999998
-0.975 -0.825 -0.7749999999999999
-0.9750000000000001 -0.825 -0.7250000000000001
-0.9749999999999999 -0.8249999999999998 -0.6749999999999999
-0.975 -0.825 -0.625
-0.9750000000000001 -0.8250000000000001 -0.575
-0.9749999999999999 -0.825 -0.5249999999999999
-0.9749999999999999 -0.7749999999999998 -0.9749999999999999
-0.9749999999999998 -0.7749999999999999 -0.9249999999999998
-0.9749999999999999 -0.7749999999999999 -0.875
-0.975 -0.7749999999999999 -0.825
-0.975 -0.775 -0.775
-0.975 -0.7750000000000001 -0.725
-0.9750000000000001 -0.7750000000000001 -0.675
-0.9749999999999999 -0.7749999999999998 -0.6249999999999999
-0.9749999999999999 -0.775 -0.575
-0.9749999999999999 -0.7749999999999999 -0.5249999999999999
-0.9749999999999999 -0.7249999999999999 -0.9749999999999999
-0.9749999999999998 -0.725 -0.9249999999999998
-0.975 -0.725 -0.875
-0.975 -0.7249999999999999 -0.825
-0.975 -0.725 -0.775
-0.9750000000000001 -0.725 -0.725
-0.9750000000000001 -0.7250000000000001 -0.6749999999999999
-0.9749999999999998 -0.7249999999999999 -0.6249999999999999
-0.975 -0.7249999999999999 -0.575
-0.9749999999999999 -0.7249999999999999 -0.5249999999999999
-0.975 -0.6749999999999998 -0.9749999999999999
-0.975 -0.6749999999999998 -0.9249999999999998
-0.975 -0.6749999999999998 -0.8749999999999998
-0.9749999999999998 -0.6749999999999999 -0.8249999999999998
-0.9750000000000001 -0.675 -0.7750000000000001
-0.975 -0.6749999999999999 -0.725
-0.9749999999999999 -0.6749999999999999 -0.6749999999999999
-0.9749999999999999 -0.6749999999999998 -0.6249999999999999
-0.975 -0.6749999999999999 -0.575
-0.9749999999999999 -0.6749999999999999 -0.5249999999999999
-0.9749999999999999 -0.6249999999999999 -0.975
-0.9749999999999999 -0.6249999999999999 -0.9249999999999998
-0.9749999999999998 -0.6249999999999998 -0.8749999999999998
-0.9749999999999999 -0.6249999999999999 -0.8249999999999997
-0.9749999999999999 -0.6249999999999999 -0.7749999999999999
-0.9749999999999999 -0.6249999999999999 -0.7249999999999999
-0.9749999999999999 -0.625 -0.6749999999999999
-0.9749999999999999 -0.6249999999999998 -0.6249999999999998
-0.9749999999999999 -0.6249999999999999 -0.575
-0.9749999999999999 -0.6249999999999998 -0.5249999999999999
-0.9749999999999999 -0.575 -0.975
-0.975 -0.575 -0.9249999999999998
-0.9750000000000001 -0.575 -0.8750000000000001
-0.975 -0.575 -0.825
-0.975 -0.575 -0.775
-0.9749999999999999 -0.575 -0.7250000000000001
-0.9750000000000001 -0.575 -0.6749999999999999
-0.9749999999999999 -0.575 -0.6249999999999999
-0.975 -0.575 -0.575
-0.9749999999999999 -0.575 -0.5249999999999999
-0.9749999999999999 -0.525 -0.9749999999999999
-0.975 -0.5249999999999999 -0.9249999999999999
-0.975 -0.525 -0.8750000000000001
-0.9749999999999999 -0.5249999999999999 -0.8249999999999997
-0.9750000000000001 -0.525 -0.775
-0.9750000000000001 -0.525 -0.725
-0.9749999999999999 -0.5249999999999999 -0.6749999999999998
-0.9749999999999999 -0.5249999999999999 -0.6249999999999999
-0.975 -0.525 -0.575
-0.9749999999999999 -0.5249999999999999 -0.5249999999999999
-0.925 -0.9750000000000001 -0.975
-0.9249999999999999 -0.9750000000000001 -0.9249999999999999
-0.925 -0.9750000000000002 -0.8750000000000001
-0.925 -0.975 -0.825
-0.9249999999999999 -0.975 -0.7750000000000001
-0.9250000000000002 -0.975 -0.725
-0.9249999999999999 -0.9750000000000001 -0.6749999999999999
-0.9249999999999999 -0.975 -0.625
-0.9249999999999999 -0.9750000000000001 -0.575
-0.9249999999999999 -0.975 -0.525
-0.9249999999999998 -0.9249999999999998 -0.975
-0.9249999999999998 -0.9249999999999998 -0.9249999999999999
-0.9249999999999999 -0.9249999999999999 -0.8749999999999999
-0.925 -0.925 -0.8249999999999998
-0.9249999999999999 -0.9249999999999999 -0.7749999999999999
-0.925 -0.925 -0.725
-0.925 -0.925 -0.675
-0.9249999999999998 -0.9249999999999998 -0.6249999999999999
-0.925 -0.925 -0.5750000000000001
-0.9249999999999998 -0.9249999999999998 -0.5249999999999999
-0.925 -0.8750000000000001 -0.9750000000000002
-0.925 -0.875 -0.9249999999999999
-0.9249999999999998 -0.875 -0.875
-0.9249999999999999 -0.8750000000000001 -0.825
-0.9249999999999999 -0.8750000000000001 -0.775
-0.925 -0.8750000000000001 -0.725
-0.925 -0.8750000000000001 -0.675
-0.9249999999999998 -0.8749999999999999 -0.6249999999999999
-0.925 -0.8750000000000001 -0.575
-0.925 -0.875 -0.525
-0.9249999999999999 -0.825 -0.9749999999999999
-0.925 -0.8249999999999998 -0.9249999999999999
-0.9249999999999999 -0.825 -0.8750000000000001
-0.9249999999999998 -0.8249999999999998 -0.825
-0.925 -0.8249999999999998 -0.7749999999999999
-0.9249999999999999 -0.8250000000000001 -0.7250000000000001
-0.9249999999999999 -0.825 -0.6749999999999998
-0.9249999999999999 -0.8249999999999998 -0.6249999999999999
-0.9249999999999999 -0.825 -0.575
-0.9249999999999999 -0.825 -0.5249999999999999
-0.9249999999999999 -0.775 -0.9749999999999999
-0.925 -0.775 -0.925
-0.925 -0.7750000000000001 -0.8750000000000001
-0.925 -0.7749999999999999 -0.825
-0.925 -0.775 -0.7750000000000001
-0.925 -0.7750000000000001 -0.7250000000000001
-0.9250000000000002 -0.7750000000000002 -0.6750000000000002
-0.9249999999999999 -0.775 -0.625
-0.925 -0.7750000000000001 -0.5750000000000001
-0.925 -0.775 -0.5249999999999999
-0.9249999999999998 -0.7249999999999999 -0.9749999999999999
-0.925 -0.725 -0.925
-0.925 -0.725 -0.8750000000000001
-0.925 -0.7249999999999999 -0.825
-0.925 -0.7250000000000002 -0.7750000000000001
-0.925 -0.7250000000000001 -0.7250000000000001
-0.925 -0.7250000000000001 -0.675
-0.9249999999999998 -0.7249999999999999 -0.625
-0.9250000000000003 -0.7250000000000001 -0.5750000000000001
-0.925 -0.7250000000000001 -0.5249999999999999
-0.925 -0.6749999999999999 -0.975
-0.9250000000000003 -0.675 -0.9250000000000002
-0.9250000000000002 -0.675 -0.8750000000000001
-0.925 -0.6749999999999999 -0.825
-0.925 -0.6750000000000002 -0.7750000000000001
-0.925 -0.6749999999999999 -0.7250000000000001
-0.925 -0.675 -0.675
-0.925 -0.6749999999999999 -0.625
-0.925 -0.675 -0.5750000000000001
-0.925 -0.675 -0.525
-0.9249999999999999 -0.625 -0.975
-0.9249999999999998 -0.625 -0.925
-0.9249999999999998 -0.6249999999999999 -0.875
-0.9249999999999998 -0.6249999999999999 -0.825
-0.9249999999999999 -0.625 -0.775
-0.9249999999999998 -0.625 -0.7249999999999999
-0.9249999999999999 -0.625 -0.6749999999999999
-0.9249999999999998 -0.6249999999999999 -0.6249999999999999
-0.925 -0.625 -0.575
-0.9249999999999999 -0.625 -0.5249999999999999
-0.9249999999999999 -0.575 -0.975
-0.9249999999999999 -0.5750000000000001 -0.9250000000000002
-0.925 -0.575 -0.8750000000000001
-0.925 -0.575 -0.8249999999999998
-0.9249999999999999 -0.5750000000000001 -0.7749999999999999
-0.925 -0.575 -0.7250000000000001
-0.925 -0.5750000000000001 -0.675
-0.9249999999999999 -0.575 -0.625
-0.925 -0.5750000000000001 -0.5750000000000001
-0.9249999999999999 -0.575 -0.5249999999999999
-0.925 -0.525 -0.975
-0.9249999999999999 -0.525 -0.9249999999999999
-0.925 -0.525 -0.8750000000000001
-0.925 -0.5249999999999999 -0.825
-0.9249999999999999 -0.5250000000000001 -0.775
-0.925 -0.525 -0.7250000000000001
-0.925 -0.525 -0.675
-0.9249999999999999 -0.5249999999999999 -0.625
-0.925 -0.525 -0.5750000000000001
-0.9249999999999999 -0.5249999999999999 -0.5249999999999999
-0.875 -0.975 -0.975
-0.875 -0.975 -0.9249999999999999
-0.8749999999999998 -0.9749999999999998 -0.8749999999999998
-0.875 -0.975 -0.825
-0.8749999999999999 -0.9749999999999999 -0.7749999999999999
-0.8749999999999999 -0.9749999999999999 -0.7249999999999999
-0.8749999999999999 -0.975 -0.6749999999999999
-0.8749999999999998 -0.9749999999999998 -0.6249999999999999
-0.875 -0.9750000000000001 -0.5750000000000001
-0.8749999999999999 -0.9749999999999999 -0.525
-0.8750000000000001 -0.925 -0.9750000000000002
-0.8750000000000001 -0.9249999999999999 -0.9249999999999999
-0.8749999999999998 -0.9249999999999998 -0.8749999999999999
-0.875 -0.9249999999999998 -0.825
-0.875 -0.9249999999999999 -0.775
-0.8750000000000001 -0.925 -0.7250000000000001
-0.8750000000000001 -0.9250000000000002 -0.675
-0.8749999999999999 -0.9249999999999999 -0.625
-0.8750000000000001 -0.925 -0.5750000000000001
-0.875 -0.925 -0.525
-0.8749999999999998 -0.8749999999999998 -0.9749999999999998
-0.8749999999999998 -0.8749999999999999 -0.9249999999999998
-0.875 -0.875 -0.875
-0.8750000000000001 -0.875 -0.825
-0.875 -0.875 -0.7750000000000001
-0.875 -0.875 -0.725
-0.875 -0.875 -0.6749999999999998
-0.875 -0.875 -0.625
[...]
POINT_DATA 64000
SCALARS level_set double 1
LOOKUP_TABLE default
1.1998787131286721
1.1715197091000311
1.1442252220593003
1.1179952520064809
1.0929382454186283
1.069054202295743
1.0464550572961044
1.0251408104197124
1.0052236947636706
0.986703710327979
1.1715197091000311
1.1426677205727884
1.114882666588
1.0881645471456658
1.0626263460905792
1.0382680634227404
1.0152070274294047
0.9934432381105718
0.9730950449908748
0.9541624480703137
1.1442252220593006
1.114882666588
1.0866085582393108
1.0594028970132325
1.033383209123728
1.0085494945707976
0.9850245584716609
0.9628084008263186
0.942025663234307
0.9226763456956266
1.117995252006481
1.0881645471456658
1.0594028970132325
1.031710301609181
1.005208834518075
0.9798984957399143
0.9559076504228734
0.9332362985669524
0.9120155494939671
0.8922454032039179
1.0929382454186283
1.0626263460905792
1.033383209123728
1.005208834518075
0.9782297830741874
0.9524460547920655
0.9279915851878331
0.9048663742614907
0.8832081010797256
0.863016765642538
1.069054202295743
1.0382680634227404
1.0085494945707976
0.9798984957399144
0.9524460547920655
0.9261921717272508
0.9012763627665403
0.8776986279099339
0.855603317991583
0.8349904330114873
1.0464550572961044
1.0152070274294045
0.9850245584716609
0.9559076504228734
0.9279915851878332
0.9012763627665403
0.8759069992629505
0.8518834946770641
0.8293568697999406
0.8083271246315803
1.0251408104197126
0.9934432381105719
0.9628084008263185
0.9332362985669524
0.904866374261491
0.877698627909934
0.8518834946770641
0.8274209745628813
0.804468756504799
0.7830268405028169
1.0052236947636708
0.973095044990875
0.942025663234307
0.912015549493967
0.8832081010797256
0.855603317991583
0.8293568697999406
0.8044687565047988
0.7811032014733771
0.7592602047056753
0.9867037103279789
0.9541624480703137
0.9226763456956264
0.8922454032039178
0.8630167656425379
0.8349904330114873
0.8083271246315802
0.7830268405028168
0.7592602047056753
0.7370272172401557
1.1715197091000311
1.1426677205727884
1.114882666588
1.0881645471456656
1.0626263460905792
1.0382680634227404
1.0152070274294045
0.993443238110572
0.9730950449908748
0.9541624480703137
1.1426677205727884
1.1132961333773927
1.084993066193551
1.057758519021264
1.031710294363346
1.0068483922197973
0.9832959499030596
0.9610529674131334
0.9402444657933778
0.9208704450437928
1.114882666588
1.084993066193551
1.0561725443219265
1.0284211009731261
1.001861360149347
0.9764933218505892
0.9524460283823973
0.9297194797447715
0.9084455771630652
0.8886243206372779
1.0881645471456658
1.057758519021264
1.0284211009731261
1.000152293001252
0.9730795434485823
0.9472028523151163
0.9226572628674176
0.8994427751054865
0.8776983790999372
0.8574240748507691
1.0626263460905792
1.031710294363346
1.001861360149347
0.973079543448582
0.9454970463437835
0.9191138688349512
0.8940710694100374
0.8703686480690419
0.8481528113309227
0.8274235591956799
1.0382680634227401
1.0068483922197973
0.9764933218505892
0.9472028523151163
0.919113868834951
0.8922263714100942
0.8666874480102564
0.8424970986354378
0.8198088738560224
0.7986227736720106
1.0152070274294045
0.9832959499030597
0.9524460283823973
0.9226572628674176
0.8940710694100374
0.8666874480102564
0.840659427585736
0.8159870081364762
0.7928310951535814
0.7711916886370513
0.993443238110572
0.9610529674131335
0.9297194797447716
0.8994427751054865
0.8703686480690419
0.8424970986354378
0.8159870081364763
0.7908383765721573
0.7672194752235991
0.7451303040908019
0.9730950449908748
0.9402444657933778
0.9084455771630652
0.877698379099937
0.8481528113309227
0.8198088738560224
0.7928310951535814
0.7672194752235991
0.7431495119945188
0.72062120546634
0.9541624480703137
0.9208704450437928
0.8886243206372779
0.857424074850769
0.8274235591956797
0.7986227736720107
0.7711916886370513
0.7451303040908019
0.7206212054663399
0.6976643927636654
1.1442252220593006
1.114882666588
1.0866085582393108
1.0594028970132325
1.033383209123728
1.0085494945707976
0.9850245584716609
0.9628084008263185
0.942025663234307
0.9226763456956265
1.114882666588
1.084993066193551
1.0561725443219265
1.0284211009731261
1.001861360149347
0.9764933218505892
0.9524460283823973
0.9297194797447715
0.9084455771630652
0.8886243206372779
1.0866085582393108
1.0561725443219263
1.0268050712016645
0.9985061388785256
0.9714034666873425
0.9454970546281156
0.9209222899997213
0.8976791728021594
0.8759071086523477
0.8556060975502863
1.0594028970132325
1.0284211009731261
0.9985061388785256
0.969658010729431
0.9420095287377148
0.915560692903377
0.8904533433236326
0.8666874799984821
0.844410257702155
0.8236216764346516
1.033383209123728
1.0018613601493471
0.9714034666873425
0.9420095287377148
0.9138173653280259
0.8868269764582757
0.8611866703365655
0.8368964469628951
0.8141113652736754
0.7928314252689066
1.0085494945707973
0.9764933218505891
0.9454970546281156
0.9155606929033768
0.8868269764582757
0.8592959052928122
0.8331222710385198
0.8083060736953986
0.7850104313669092
0.7632353440530517
0.9850245584716609
0.9524460283823973
0.9209222899997213
0.8904533433236326
0.8611866703365655
0.8331222710385198
0.8064213188670863
0.7810838138222653
0.7572809561409048
0.7350127458230044
0.9628084008263185
0.9297194797447716
0.8976791728021595
0.8666874799984821
0.8368964469628951
0.8083060736953986
0.7810838138222653
0.7552296673434955
0.7309229395956621
0.708163630578765
0.942025663234307
0.9084455771630651
0.8759071086523477
0.844410257702155
0.8141113652736754
0.7850104313669092
0.7572809561409048
0.730922939595662
0.7061236436979429
0.6828830684477468
0.9226763456956265
0.8886243206372779
0.8556060975502863
0.8236216764346516
0.7928314252689066
0.7632353440530517
0.7350127458230044
0.708163630578765
0.6828830684477468
0.6591710594299498
1.117995252006481
1.0881645471456656
1.0594028970132325
1.0317103016091813
1.0052088345180752
0.9798984957399143
0.9559076504228735
0.9332362985669524
0.9120155494939671
0.8922454032039179
1.088164547145666
1.0577585190212642
1.0284211009731261
1.000152293001252
0.973079543448582
0.9472028523151161
0.9226572628674176
0.8994427751054865
0.8776983790999371
0.8574240748507691
1.0594028970132325
1.0284211009731261
0.9985061388785256
0.969658010729431
0.9420095287377148
0.915560692903377
0.8904533433236326
0.866687479998482
0.8444102577021552
0.8236216764346517
1.031710301609181
1.000152293001252
0.969658010729431
0.940227454793718
0.9119987903854734
0.8849720175046966
0.8592958917915183
0.8349704132459388
0.812151185300621
0.7908382079555651
1.0052088345180752
0.973079543448582
0.9420095287377148
0.9119987903854733
0.8831907400269148
0.8555853776620392
0.8293383879674177
0.8044497709430504
0.7810837629079838
0.7592403638622182
0.9798984957399143
0.9472028523151161
0.9155606929033768
0.8849720175046966
0.8555853776620392
0.8274007733754046
0.8005808318513304
0.7751255530898163
0.7512079905242431
0.7288281441546103
0.9559076504228732
0.9226572628674174
0.8904533433236325
0.8592958917915183
0.8293383879674175
0.8005808318513301
0.7731926731070017
0.7471739117344317
0.7227064527619109
0.6997902961894394
0.9332362985669523
0.8994427751054865
0.8666874799984821
0.8349704132459388
0.8044497709430503
0.7751255530898163
0.7471739117344318
0.7205948468768963
0.6955791496209877
0.672126819966706
0.9120155494939671
0.8776983790999371
0.8444102577021552
0.812151185300621
0.7810837629079838
0.7512079905242431
0.722706452761911
0.6955791496209877
0.6700255965836494
0.6460457936498958
0.8922454032039179
0.8574240748507691
0.8236216764346516
0.7908382079555653
0.7592403638622183
0.7288281441546103
0.6997902961894396
0.672126819966706
0.6460457936498958
0.6215472172390086
1.0929382454186283
1.0626263460905792
1.033383209123728
1.0052088345180752
0.9782297830741874
0.9524460547920655
0.9279915851878332
0.9048663742614907
0.8832081010797258
0.863016765642538
1.0626263460905792
1.031710294363346
1.001861360149347
0.9730795434485822
0.9454970463437835
0.9191138688349512
0.8940710694100374
0.870368648069042
0.8481528113309228
0.82742355919568
1.033383209123728
1.001861360149347
0.9714034666873427
0.9420095287377148
0.9138173653280259
0.8868269764582757
0.8611866703365655
0.8368964469628951
0.8141113652736753
0.7928314252689066
1.0052088345180752
0.9730795434485822
0.9420095287377148
0.9119987903854734
0.8831907400269148
0.8555853776620392
0.8293383879674177
0.8044497709430503
0.7810837629079838
0.7592403638622183
0.9782297830741875
0.9454970463437834
0.9138173653280258
0.8831907400269147
0.853766039722863
0.8255432644158708
0.798685480807693
0.7731926888983299
0.7492385152466591
0.7268229598526808
0.9524460547920655
0.9191138688349512
0.8868269764582758
0.8555853776620391
0.8255432644158708
0.7967006367197702
0.7692279488573912
0.7431252008287337
0.7185756222897015
0.6955792132402943
0.9279915851878332
0.8940710694100373
0.8611866703365655
0.8293383879674177
0.7986854808076929
0.7692279488573912
0.7411434850039393
0.7144320892473373
0.6892866353762509
0.6657071233906803
0.904866374261491
0.870368648069042
0.8368964469628952
0.8044497709430503
0.7731926888983299
0.7431252008287338
0.7144320892473373
0.6871133541541404
0.6613715545063077
0.6372066903038389
0.8832081010797257
0.8481528113309228
0.8141113652736753
0.7810837629079838
0.7492385152466591
0.7185756222897014
0.689286635376251
0.6613715545063077
0.6350424379906197
0.6102992858291867
0.863016765642538
0.8274235591956798
0.7928314252689065
0.7592403638622183
0.7268229598526808
0.6955792132402943
0.6657071233906802
0.6372066903038389
0.6102992858291867
0.5849849099667237
1.069054202295743
1.0382680634227404
1.0085494945707973
0.9798984957399142
0.9524460547920655
0.9261921717272508
0.9012763627665403
0.8776986279099339
0.855603317991583
0.8349904330114873
1.0382680634227401
1.0068483922197973
0.9764933218505892
0.9472028523151161
0.919113868834951
0.8922263714100942
0.8666874480102564
0.8424970986354378
0.8198088738560223
0.7986227736720107
1.0085494945707973
0.9764933218505892
0.9454970546281156
0.9155606929033769
0.8868269764582758
0.8592959052928122
0.8331222710385198
0.8083060736953985
0.7850104313669091
0.7632353440530517
0.9798984957399142
0.9472028523151163
0.9155606929033769
0.8849720175046966
0.8555853776620392
0.8274007733754046
0.8005808318513304
0.7751255530898163
0.7512079905242431
0.7288281441546104
0.9524460547920655
0.9191138688349512
0.8868269764582758
0.8555853776620392
0.8255432644158708
0.7967006367197702
0.7692279488573912
0.7431252008287338
0.7185756222897015
0.6955792132402943
0.9261921717272507
0.8922263714100942
0.8592959052928122
0.8274007733754046
0.7967006367197702
0.7671954953259086
0.739063622056702
0.7123050169121504
0.6871133266632843
0.6634885513101036
0.9012763627665403
0.8666874480102564
0.8331222710385198
0.8005808318513304
0.7692279488573912
0.7390636220567021
0.7102737545578989
0.6828583463609817
0.6570215039839244
0.6327632274267265
0.877698627909934
0.8424970986354378
0.8083060736953986
0.7751255530898163
0.7431252008287339
0.7123050169121504
0.6828583463609817
0.6547851891752281
0.628300154251622
0.6034032415901633
0.855603317991583
0.8198088738560224
0.7850104313669092
0.7512079905242431
0.7185756222897015
0.6871133266632843
0.6570215039839243
0.628300154251622
0.6011741679188536
0.5756435449856195
0.8349904330114872
0.7986227736720107
0.7632353440530515
0.7288281441546104
0.6955792132402941
0.6634885513101036
0.6327632274267266
0.6034032415901635
0.5756435449856196
0.549484137613095
1.0464550572961042
1.0152070274294045
0.9850245584716609
0.9559076504228734
0.9279915851878332
0.9012763627665403
0.8759069992629505
0.8518834946770641
0.8293568697999406
0.8083271246315803
1.0152070274294047
0.9832959499030597
0.9524460283823973
0.9226572628674176
0.8940710694100373
0.8666874480102564
0.8406594275857359
0.8159870081364762
0.7928310951535814
0.7711916886370513
0.9850245584716609
0.9524460283823973
0.9209222899997213
0.8904533433236326
0.8611866703365655
0.8331222710385198
0.8064213188670865
0.7810838138222653
0.7572809561409048
0.7350127458230044
0.9559076504228732
0.9226572628674174
0.8904533433236325
0.8592958917915183
0.8293383879674175
0.8005808318513302
0.7731926731070017
0.7471739117344318
0.7227064527619108
0.6997902961894394
0.9279915851878331
0.8940710694100373
0.8611866703365655
0.8293383879674177
0.7986854808076929
0.7692279488573912
0.7411434850039393
0.7144320892473373
0.6892866353762509
0.6657071233906803
0.9012763627665402
0.8666874480102563
0.8331222710385198
0.8005808318513303
0.7692279488573912
0.739063622056702
0.7102737545578989
0.6828583463609819
0.6570215039839244
0.6327632274267265
0.8759069992629505
0.840659427585736
0.8064213188670865
0.7731926731070018
0.7411434850039393
0.7102737545578989
0.6807773497676047
0.6526542706330569
0.6261198877519778
0.6011742011243673
0.8518834946770639
0.8159870081364762
0.7810838138222653
0.7471739117344318
0.7144320892473371
0.6828583463609817
0.6526542706330568
0.6238198620635625
0.596581786680411
0.5709400444836024
0.8293568697999406
0.7928310951535814
0.7572809561409048
0.7227064527619109
0.689286635376251
0.6570215039839243
0.6261198877519778
0.5965817866804111
0.5686448823419024
0.5423091747364519
0.8083271246315803
0.7711916886370513
0.7350127458230042
0.6997902961894396
0.6657071233906802
0.6327632274267265
0.6011742011243673
0.5709400444836026
0.5423091747364519
0.5152815918829154
1.0251408104197126
0.9934432381105719
0.9628084008263185
0.9332362985669524
0.9048663742614909
0.8776986279099339
0.8518834946770643
0.8274209745628814
0.804468756504799
0.7830268405028168
0.9934432381105719
0.9610529674131334
0.9297194797447716
0.8994427751054865
0.8703686480690418
0.8424970986354378
0.8159870081364763
0.7908383765721572
0.7672194752235991
0.7451303040908019
0.9628084008263184
0.9297194797447716
0.8976791728021595
0.866687479998482
0.8368964469628952
0.8083060736953988
0.7810838138222653
0.7552296673434955
0.7309229395956621
0.7081636305787651
0.9332362985669523
0.8994427751054864
0.866687479998482
0.8349704132459388
0.8044497709430503
0.7751255530898163
0.7471739117344318
0.7205948468768962
0.6955791496209877
0.6721268199667059
0.9048663742614909
0.870368648069042
0.8368964469628952
0.8044497709430504
0.77319268889833
0.7431252008287338
0.7144320892473373
0.6871133541541404
0.6613715545063078
0.6372066903038388
0.8776986279099339
0.8424970986354378
0.8083060736953986
0.7751255530898163
0.7431252008287339
0.7123050169121504
0.6828583463609817
0.654785189175228
0.6283001542516219
0.6034032415901635
0.851883494677064
0.8159870081364761
0.7810838138222652
0.7471739117344318
0.7144320892473373
0.6828583463609817
0.6526542706330568
0.6238198620635625
0.5965817866804111
0.5709400444836024
0.8274209745628813
0.7908383765721573
0.7552296673434955
0.7205948468768963
0.6871133541541404
0.6547851891752281
0.6238198620635628
0.5942173728191442
0.5662164517926754
0.5398170989841561
0.8044687565047991
0.7672194752235992
0.7309229395956623
0.6955791496209879
0.6613715545063078
0.628300154251622
0.5965817866804111
0.5662164517926754
0.5374545812597663
0.5102961750816838
0.7830268405028169
0.7451303040908019
0.7081636305787652
0.672126819966706
0.6372066903038388
0.6034032415901635
0.5709400444836025
0.5398170989841562
0.5102961750816838
0.48237727277618525
1.0052236947636708
0.973095044990875
0.942025663234307
0.912015549493967
0.8832081010797257
0.855603317991583
0.8293568697999407
0.804468756504799
0.7811032014733771
0.7592602047056752
0.9730950449908748
0.9402444657933777
0.9084455771630651
0.877698379099937
0.8481528113309227
0.8198088738560225
0.7928310951535814
0.7672194752235991
0.7431495119945187
0.7206212054663399
0.942025663234307
0.9084455771630652
0.8759071086523477
0.844410257702155
0.8141113652736756
0.7850104313669092
0.7572809561409047
0.730922939595662
0.7061236436979429
0.6828830684477468
0.9120155494939671
0.8776983790999371
0.844410257702155
0.8121511853006211
0.7810837629079838
0.751207990524243
0.722706452761911
0.6955791496209877
0.6700255965836494
0.6460457936498958
0.8832081010797257
0.8481528113309228
0.8141113652736753
0.7810837629079839
0.7492385152466592
0.7185756222897014
0.689286635376251
0.6613715545063077
0.6350424379906197
0.6102992858291867
0.855603317991583
0.8198088738560225
0.7850104313669092
0.751207990524243
0.7185756222897013
0.6871133266632843
0.6570215039839243
0.6283001542516219
0.6011741679188536
0.5756435449856194
0.8293568697999406
0.7928310951535814
0.7572809561409048
0.7227064527619109
0.689286635376251
0.6570215039839243
0.6261198877519778
0.5965817866804112
0.5686448823419024
0.5423091747364519
0.8044687565047991
0.7672194752235992
0.7309229395956623
0.6955791496209878
0.6613715545063078
0.628300154251622
0.5965817866804111
0.5662164517926755
0.5374545812597664
0.5102961750816838
0.7811032014733771
0.7431495119945188
0.706123643697943
0.6700255965836495
0.6350424379906197
0.6011741679188536
0.5686448823419024
0.5374545812597663
0.5078659562061855
0.47987900718116
0.7592602047056753
0.7206212054663399
0.6828830684477469
0.6460457936498958
0.6102992858291867
0.5756435449856194
0.5423091747364519
0.5102961750816838
0.47987900718116
0.4510576710348804
0.9867037103279789
0.9541624480703137
0.9226763456956265
0.8922454032039178
0.863016765642538
0.8349904330114873
0.8083271246315803
0.7830268405028167
0.7592602047056753
0.7370272172401556
0.9541624480703136
0.9208704450437928
0.8886243206372779
0.857424074850769
0.8274235591956798
0.7986227736720106
0.7711916886370513
0.7451303040908019
0.7206212054663399
0.6976643927636654
0.9226763456956266
0.8886243206372779
0.8556060975502862
0.8236216764346515
0.7928314252689066
0.7632353440530517
0.7350127458230042
0.708163630578765
0.6828830684477468
0.6591710594299498
0.8922454032039179
0.857424074850769
0.8236216764346515
0.7908382079555651
0.7592403638622183
0.7288281441546103
0.6997902961894394
0.672126819966706
0.6460457936498959
0.6215472172390086
0.863016765642538
0.8274235591956799
0.7928314252689066
0.7592403638622183
0.7268229598526808
0.6955792132402941
0.6657071233906802
0.6372066903038388
0.6102992858291867
0.5849849099667237
0.8349904330114872
0.7986227736720106
0.7632353440530515
0.7288281441546103
0.6955792132402941
0.6634885513101035
0.6327632274267266
0.6034032415901635
0.5756435449856196
0.549484137613095
0.8083271246315803
0.7711916886370512
0.7350127458230042
0.6997902961894394
0.6657071233906802
0.6327632274267266
0.6011742011243671
0.5709400444836026
0.5423091747364518
0.5152815918829154
0.7830268405028169
0.745130304090802
0.7081636305787652
0.672126819966706
0.6372066903038389
0.6034032415901635
0.5709400444836025
0.5398170989841562
0.5102961750816838
0.4823772727761853
0.7592602047056753
0.7206212054663399
0.6828830684477469
0.6460457936498958
0.6102992858291868
0.5756435449856195
0.5423091747364517
0.5102961750816838
0.47987900718116
0.4510576710348804
0.7370272172401556
0.6976643927636654
0.6591710594299499
0.6215472172390087
0.5849849099667238
0.549484137613095
0.5152815918829154
0.48237727277618525
0.4510576710348804
0.42132278665900097
0.9696892311765486
0.9367603872679281
0.9048822229390717
0.8740547381899795
0.8444285533115943
0.8160036683039166
0.7889455605062603
0.7632542299186255
0.7391064158597355
0.7165021183295902
0.9367603872679282
0.9030530886885397
0.8703854624156927
0.8387575084493875
0.8083266872811857
0.7790929989110877
0.7512315316720536
0.7247422855640835
0.6998146211961422
0.6764485385682297
0.9048822229390718
0.8703854624156928
0.8369142593429324
0.8044686137207908
0.7732125796943135
0.7431461572635005
0.7144541074284064
0.6871364301890318
0.6613956575113078
0.6372317893952346
0.8740547381899795
0.8387575084493875
0.8044686137207908
0.7711880540041897
0.7390862305509779
0.708163143361155
0.6786132877753193
0.6504366637934702
0.6238495248052323
0.5988518708106052
0.8444285533115943
0.8083266872811856
0.7732125796943135
0.7390862305509777
0.7061238528693227
0.6743254466493483
0.6438949778053381
0.614832446337292
0.5873680927334897
0.5615019169939313
0.8160036683039165
0.7790929989110877
0.7431461572635005
0.708163143361155
0.6743254466493482
0.6416330671280803
0.6102991775184632