# vtk DataFile Version 4.1
Header:
ASCII

DATASET UNSTRUCTURED_GRID
POINTS 125 double
-1 -1 -1
-0.5 -1 -1
0 -1 -1
0.5 -1 -1
1 -1 -1
-1 -0.5 -1
-0.5 -0.5 -1
0 -0.5 -1
0.5 -0.5 -1
1 -0.5 -1
-1 0 -1
-0.5 0 -1
0 0 -1
0.5 0 -1
1 0 -1
-1 0.5 -1
-0.5 0.5 -1
0 0.5 -1
0.5 0.5 -1
1 0.5 -1
-1 1 -1
-0.5 1 -1
0 1 -1
0.5 1 -1
1 1 -1
-1 -1 -0.5
-0.5 -1 -0.5
0 -1 -0.5
0.5 -1 -0.5
1 -1 -0.5
-1 -0.5 -0.5
-0.5 -0.5 -0.5
0 -0.5 -0.5
0.5 -0.5 -0.5
1 -0.5 -0.5
-1 0 -0.5
-0.5 0 -0.5
0 0 -0.5
0.5 0 -0.5
1 0 -0.5
-1 0.5 -0.5
-0.5 0.5 -0.5
0 0.5 -0.5
0.5 0.5 -0.5
1 0.5 -0.5
-1 1 -0.5
-0.5 1 -0.5
0 1 -0.5
0.5 1 -0.5
1 1 -0.5
-1 -1 0
-0.5 -1 0
0 -1 0
0.5 -1 0
1 -1 0
-1 -0.5 0
-0.5 -0.5 0
0 -0.5 0
0.5 -0.5 0
1 -0.5 0
-1 0 0
-0.5 0 0
0 0 0
0.5 0 0
1 0 0
-1 0.5 0
-0.5 0.5 0
0 0.5 0
0.5 0.5 0
1 0.5 0
-1 1 0
-0.5 1 0
0 1 0
0.5 1 0
1 1 0
-1 -1 0.5
-0.5 -1 0.5
0 -1 0.5
0.5 -1 0.5
1 -1 0.5
-1 -0.5 0.5
-0.5 -0.5 0.5
0 -0.5 0.5
0.5 -0.5 0.5
1 -0.5 0.5
-1 0 0.5
-0.5 0 0.5
0 0 0.5
0.5 0 0.5
1 0 0.5
-1 0.5 0.5
-0.5 0.5 0.5
0 0.5 0.5
0.5 0.5 0.5
1 0.5 0.5
-1 1 0.5
-0.5 1 0.5
0 1 0.5
0.5 1 0.5
1 1 0.5
-1 -1 1
-0.5 -1 1
0 -1 1
0.5 -1 1
1 -1 1
-1 -0.5 1
-0.5 -0.5 1
0 -0.5 1
0.5 -0.5 1
1 -0.5 1
-1 0 1
-0.5 0 1
0 0 1
0.5 0 1
1 0 1
-1 0.5 1
-0.5 0.5 1
0 0.5 1
0.5 0.5 1
1 0.5 1
-1 1 1
-0.5 1 1
0 1 1
0.5 1 1
1 1 1


POINT_DATA 125
SCALARS level_set double 1
LOOKUP_TABLE default
1.2320508075688772
1
0.9142135623730951
1
1.2320508075688772
1
0.7247448713915889
0.6180339887498949
0.7247448713915889
1
0.9142135623730951
0.6180339887498949
0.5
0.6180339887498949
0.9142135623730951
1
0.7247448713915889
0.6180339887498949
0.7247448713915889
1
1.2320508075688772
1
0.9142135623730951
1
1.2320508075688772
1
0.7247448713915889
0.6180339887498949
0.7247448713915889
1
0.7247448713915889
0.3660254037844386
0.20710678118654757
0.3660254037844386
0.7247448713915889
0.6180339887498949
0.20710678118654757
0
0.20710678118654757
0.6180339887498949
0.7247448713915889
0.3660254037844386
0.20710678118654757
0.3660254037844386
0.7247448713915889
1
0.7247448713915889
0.6180339887498949
0.7247448713915889
1
0.9142135623730951
0.6180339887498949
0.5
0.6180339887498949
0.9142135623730951
0.6180339887498949
0.20710678118654757
0
0.20710678118654757
0.6180339887498949
0.5
0
-0.5
0
0.5
0.6180339887498949
0.20710678118654757
0
0.20710678118654757
0.6180339887498949
0.9142135623730951
0.6180339887498949
0.5
0.6180339887498949
0.9142135623730951
1
0.7247448713915889
0.6180339887498949
0.7247448713915889
1
0.7247448713915889
0.3660254037844386
0.20710678118654757
0.3660254037844386
0.7247448713915889
0.6180339887498949
0.20710678118654757
0
0.20710678118654757
0.6180339887498949
0.7247448713915889
0.3660254037844386
0.20710678118654757
0.3660254037844386
0.7247448713915889
1
0.7247448713915889
0.6180339887498949
0.7247448713915889
1
1.2320508075688772
1
0.9142135623730951
1
1.2320508075688772
1
0.7247448713915889
0.6180339887498949
0.7247448713915889
1
0.9142135623730951
0.6180339887498949
0.5
0.6180339887498949
0.9142135623730951
1
0.7247448713915889
0.6180339887498949
0.7247448713915889
1
1.2320508075688772
1
0.9142135623730951
1
1.2320508075688772

