# vtk DataFile Version 4.1
Header:
ASCII

DATASET UNSTRUCTURED_GRID
POINTS 9261 double
-1 -1 -1
-0.9 -1 -1
-0.8 -1 -1
-0.7 -1 -1
-0.6 -1 -1
-0.5 -1 -1
-0.3999999999999999 -1 -1
-0.29999999999999993 -1 -1
-0.19999999999999996 -1 -1
-0.09999999999999998 -1 -1
0 -1 -1
0.10000000000000009 -1 -1
0.20000000000000018 -1 -1
0.30000000000000004 -1 -1
0.40000000000000013 -1 -1
0.5 -1 -1
0.6000000000000001 -1 -1
0.7000000000000002 -1 -1
0.8 -1 -1
0.9000000000000001 -1 -1
1 -1 -1
-1 -0.9 -1
-0.9 -0.9 -1
-0.8 -0.9 -1
-0.7 -0.9 -1
-0.6 -0.9 -1
-0.5 -0.9 -1
-0.3999999999999999 -0.9 -1
-0.29999999999999993 -0.9 -1
-0.19999999999999996 -0.9 -1
-0.09999999999999998 -0.9 -1
0 -0.9 -1
0.10000000000000009 -0.9 -1
0.20000000000000018 -0.9 -1
0.30000000000000004 -0.9 -1
0.40000000000000013 -0.9 -1
0.5 -0.9 -1
0.6000000000000001 -0.9 -1
0.7000000000000002 -0.9 -1
0.8 -0.9 -1
0.9000000000000001 -0.9 -1
1 -0.9 -1
-1 -0.8 -1
-0.9 -0.8 -1
-0.8 -0.8 -1
-0.7 -0.8 -1
-0.6 -0.8 -1
-0.5 -0.8 -1
-0.3999999999999999 -0.8 -1
-0.29999999999999993 -0.8 -1
-0.19999999999999996 -0.8 -1
-0.09999999999999998 -0.8 -1
0 -0.8 -1
0.10000000000000009 -0.8 -1
0.20000000000000018 -0.8 -1
0.30000000000000004 -0.8 -1
0.40000000000000013 -0.8 -1
0.5 -0.8 -1
0.6000000000000001 -0.8 -1
0.7000000000000002 -0.8 -1
0.8 -0.8 -1
0.9000000000000001 -0.8 -1
1 -0.8 -1
-1 -0.7 -1
-0.9 -0.7 -1
-0.8 -0.7 -1
-0.7 -0.7 -1
-0.6 -0.7 -1
-0.5 -0.7 -1
-0.3999999999999999 -0.7 -1
-0.29999999999999993 -0.7 -1
-0.19999999999999996 -0.7 -1
-0.09999999999999998 -0.7 -1
0 -0.7 -1
0.10000000000000009 -0.7 -1
0.20000000000000018 -0.7 -1
0.30000000000000004 -0.7 -1
0.40000000000000013 -0.7 -1
0.5 -0.7 -1
0.6000000000000001 -0.7 -1
0.7000000000000002 -0.7 -1
0.8 -0.7 -1
0.9000000000000001 -0.7 -1
1 -0.7 -1
-1 -0.6 -1
-0.9 -0.6 -1
-0.8 -0.6 -1
-0.7 -0.6 -1
-0.6 -0.6 -1
-0.5 -0.6 -1
-0.3999999999999999 -0.6 -1
-0.29999999999999993 -0.6 -1
-0.19999999999999996 -0.6 -1
-0.09999999999999998 -0.6 -1
0 -0.6 -1
0.10000000000000009 -0.6 -1
0.20000000000000018 -0.6 -1
0.30000000000000004 -0.6 -1
0.40000000000000013 -0.6 -1
0.5 -0.6 -1
0.6000000000000001 -0.6 -1
0.7000000000000002 -0.6 -1
0.8 -0.6 -1
0.9000000000000001 -0.6 -1
1 -0.6 -1
-1 -0.5 -1
-0.9 -0.5 -1
-0.8 -0.5 -1
-0.7 -0.5 -1
-0.6 -0.5 -1
-0.5 -0.5 -1
-0.3999999999999999 -0.5 -1
-0.29999999999999993 -0.5 -1
-0.19999999999999996 -0.5 -1
-0.09999999999999998 -0.5 -1
0 -0.5 -1
0.10000000000000009 -0.5 -1
0.20000000000000018 -0.5 -1
0.30000000000000004 -0.5 -1
0.40000000000000013 -0.5 -1
0.5 -0.5 -1
0.6000000000000001 -0.5 -1
0.7000000000000002 -0.5 -1
0.8 -0.5 -1
0.9000000000000001 -0.5 -1
1 -0.5 -1
-1 -0.3999999999999999 -1
-0.9 -0.3999999999999999 -1
-0.8 -0.3999999999999999 -1
-0.7 -0.3999999999999999 -1
-0.6 -0.3999999999999999 -1
-0.5 -0.3999999999999999 -1
-0.3999999999999999 -0.3999999999999999 -1
-0.29999999999999993 -0.3999999999999999 -1
-0.19999999999999996 -0.3999999999999999 -1
-0.09999999999999998 -0.3999999999999999 -1
0 -0.3999999999999999 -1
0.10000000000000009 -0.3999999999999999 -1
0.20000000000000018 -0.3999999999999999 -1
0.30000000000000004 -0.3999999999999999 -1
0.40000000000000013 -0.3999999999999999 -1
0.5 -0.3999999999999999 -1
0.6000000000000001 -0.3999999999999999 -1
0.7000000000000002 -0.3999999999999999 -1
0.8 -0.3999999999999999 -1
0.9000000000000001 -0.3999999999999999 -1
1 -0.3999999999999999 -1
-1 -0.29999999999999993 -1
-0.9 -0.29999999999999993 -1
-0.8 -0.29999999999999993 -1
-0.7 -0.29999999999999993 -1
-0.6 -0.29999999999999993 -1
-0.5 -0.29999999999999993 -1
-0.3999999999999999 -0.29999999999999993 -1
-0.29999999999999993 -0.29999999999999993 -1
-0.19999999999999996 -0.29999999999999993 -1
-0.09999999999999998 -0.29999999999999993 -1
0 -0.29999999999999993 -1
0.10000000000000009 -0.29999999999999993 -1
0.20000000000000018 -0.29999999999999993 -1
0.30000000000000004 -0.29999999999999993 -1
0.40000000000000013 -0.29999999999999993 -1
0.5 -0.29999999999999993 -1
0.6000000000000001 -0.29999999999999993 -1
0.7000000000000002 -0.29999999999999993 -1
0.8 -0.29999999999999993 -1
0.9000000000000001 -0.29999999999999993 -1
1 -0.29999999999999993 -1
-1 -0.19999999999999996 -1
-0.9 -0.19999999999999996 -1
-0.8 -0.19999999999999996 -1
-0.7 -0.19999999999999996 -1
-0.6 -0.19999999999999996 -1
-0.5 -0.19999999999999996 -1
-0.3999999999999999 -0.19999999999999996 -1
-0.29999999999999993 -0.19999999999999996 -1
-0.19999999999999996 -0.19999999999999996 -1
-0.09999999999999998 -0.19999999999999996 -1
0 -0.19999999999999996 -1
0.10000000000000009 -0.19999999999999996 -1
0.20000000000000018 -0.19999999999999996 -1
0.30000000000000004 -0.19999999999999996 -1
0.40000000000000013 -0.19999999999999996 -1
0.5 -0.19999999999999996 -1
0.6000000000000001 -0.19999999999999996 -1
0.7000000000000002 -0.19999999999999996 -1
0.8 -0.19999999999999996 -1
0.9000000000000001 -0.19999999999999996 -1
1 -0.19999999999999996 -1
-1 -0.09999999999999998 -1
-0.9 -0.09999999999999998 -1
-0.8 -0.09999999999999998 -1
-0.7 -0.09999999999999998 -1
-0.6 -0.09999999999999998 -1
-0.5 -0.09999999999999998 -1
-0.3999999999999999 -0.09999999999999998 -1
-0.29999999999999993 -0.09999999999999998 -1
-0.19999999999999996 -0.09999999999999998 -1
-0.09999999999999998 -0.09999999999999998 -1
0 -0.09999999999999998 -1
0.10000000000000009 -0.09999999999999998 -1
0.20000000000000018 -0.09999999999999998 -1
0.30000000000000004 -0.09999999999999998 -1
0.40000000000000013 -0.09999999999999998 -1
0.5 -0.09999999999999998 -1
0.6000000000000001 -0.09999999999999998 -1
0.7000000000000002 -0.09999999999999998 -1
0.8 -0.09999999999999998 -1
0.9000000000000001 -0.09999999999999998 -1
1 -0.09999999999999998 -1
-1 0 -1
-0.9 0 -1
-0.8 0 -1
-0.7 0 -1
-0.6 0 -1
-0.5 0 -1
-0.3999999999999999 0 -1
-0.29999999999999993 0 -1
-0.19999999999999996 0 -1
-0.09999999999999998 0 -1
0 0 -1
0.10000000000000009 0 -1
0.20000000000000018 0 -1
0.30000000000000004 0 -1
0.40000000000000013 0 -1
0.5 0 -1
0.6000000000000001 0 -1
0.7000000000000002 0 -1
0.8 0 -1
0.9000000000000001 0 -1
1 0 -1
-1 0.10000000000000009 -1
-0.9 0.10000000000000009 -1
-0.8 0.10000000000000009 -1
-0.7 0.10000000000000009 -1
-0.6 0.10000000000000009 -1
-0.5 0.10000000000000009 -1
-0.3999999999999999 0.10000000000000009 -1
-0.29999999999999993 0.10000000000000009 -1
-0.19999999999999996 0.10000000000000009 -1
-0.09999999999999998 0.10000000000000009 -1
0 0.10000000000000009 -1
0.10000000000000009 0.10000000000000009 -1
0.20000000000000018 0.10000000000000009 -1
0.30000000000000004 0.10000000000000009 -1
0.40000000000000013 0.10000000000000009 -1
0.5 0.10000000000000009 -1
0.6000000000000001 0.10000000000000009 -1
0.7000000000000002 0.10000000000000009 -1
0.8 0.10000000000000009 -1
0.9000000000000001 0.10000000000000009 -1
1 0.10000000000000009 -1
-1 0.20000000000000018 -1
-0.9 0.20000000000000018 -1
-0.8 0.20000000000000018 -1
-0.7 0.20000000000000018 -1
-0.6 0.20000000000000018 -1
-0.5 0.20000000000000018 -1
-0.3999999999999999 0.20000000000000018 -1
-0.29999999999999993 0.20000000000000018 -1
-0.19999999999999996 0.20000000000000018 -1
-0.09999999999999998 0.20000000000000018 -1
0 0.20000000000000018 -1
0.10000000000000009 0.20000000000000018 -1
0.20000000000000018 0.20000000000000018 -1
0.30000000000000004 0.20000000000000018 -1
0.40000000000000013 0.20000000000000018 -1
0.5 0.20000000000000018 -1
0.6000000000000001 0.20000000000000018 -1
0.7000000000000002 0.20000000000000018 -1
0.8 0.20000000000000018 -1
0.9000000000000001 0.20000000000000018 -1
1 0.20000000000000018 -1
-1 0.30000000000000004 -1
-0.9 0.30000000000000004 -1
-0.8 0.30000000000000004 -1
-0.7 0.30000000000000004 -1
-0.6 0.30000000000000004 -1
-0.5 0.30000000000000004 -1
-0.3999999999999999 0.30000000000000004 -1
-0.29999999999999993 0.30000000000000004 -1
-0.19999999999999996 0.30000000000000004 -1
-0.09999999999999998 0.30000000000000004 -1
0 0.30000000000000004 -1
0.10000000000000009 0.30000000000000004 -1
0.20000000000000018 0.30000000000000004 -1
0.30000000000000004 0.30000000000000004 -1
0.40000000000000013 0.30000000000000004 -1
0.5 0.30000000000000004 -1
0.6000000000000001 0.30000000000000004 -1
0.7000000000000002 0.30000000000000004 -1
0.8 0.30000000000000004 -1
0.9000000000000001 0.30000000000000004 -1
1 0.30000000000000004 -1
-1 0.40000000000000013 -1
-0.9 0.40000000000000013 -1
-0.8 0.40000000000000013 -1
-0.7 0.40000000000000013 -1
-0.6 0.40000000000000013 -1
-0.5 0.40000000000000013 -1
-0.3999999999999999 0.40000000000000013 -1
-0.29999999999999993 0.40000000000000013 -1
-0.19999999999999996 0.40000000000000013 -1
-0.09999999999999998 0.40000000000000013 -1
0 0.40000000000000013 -1
0.10000000000000009 0.40000000000000013 -1
0.20000000000000018 0.40000000000000013 -1
0.30000000000000004 0.40000000000000013 -1
0.40000000000000013 0.40000000000000013 -1
0.5 0.40000000000000013 -1
0.6000000000000001 0.40000000000000013 -1
0.7000000000000002 0.40000000000000013 -1
0.8 0.40000000000000013 -1
0.9000000000000001 0.40000000000000013 -1
1 0.40000000000000013 -1
-1 0.5 -1
-0.9 0.5 -1
-0.8 0.5 -1
-0.7 0.5 -1
-0.6 0.5 -1
-0.5 0.5 -1
-0.3999999999999999 0.5 -1
-0.29999999999999993 0.5 -1
-0.19999999999999996 0.5 -1
-0.09999999999999998 0.5 -1
0 0.5 -1
0.10000000000000009 0.5 -1
0.20000000000000018 0.5 -1
0.30000000000000004 0.5 -1
0.40000000000000013 0.5 -1
0.5 0.5 -1
0.6000000000000001 0.5 -1
0.7000000000000002 0.5 -1
0.8 0.5 -1
0.9000000000000001 0.5 -1
1 0.5 -1
-1 0.6000000000000001 -1
-0.9 0.6000000000000001 -1
-0.8 0.6000000000000001 -1
-0.7 0.6000000000000001 -1
-0.6 0.6000000000000001 -1
-0.5 0.6000000000000001 -1
-0.3999999999999999 0.6000000000000001 -1
-0.29999999999999993 0.6000000000000001 -1
-0.19999999999999996 0.6000000000000001 -1
-0.09999999999999998 0.6000000000000001 -1
0 0.6000000000000001 -1
0.10000000000000009 0.6000000000000001 -1
0.20000000000000018 0.6000000000000001 -1
0.30000000000000004 0.6000000000000001 -1
0.40000000000000013 0.6000000000000001 -1
0.5 0.6000000000000001 -1
0.6000000000000001 0.6000000000000001 -1
[...]
POINT_DATA 9261
SCALARS level_set double 1
LOOKUP_TABLE default
1.2320508075688772
1.176305461424021
1.124807680927192
1.07797338380595
1.0362291495737217
1
0.9696938456699069
0.9456832294800961
0.92828568570857
0.9177446878757824
0.9142135623730951
0.9177446878757824
0.92828568570857
0.9456832294800961
0.9696938456699069
1
1.0362291495737217
1.07797338380595
1.124807680927192
1.1763054614240211
1.2320508075688772
1.176305461424021
1.1186414056238645
1.0652475842498528
1.01657508881031
0.9730919862656235
0.9352700094407325
0.9035668847618199
0.8784048752090221
0.8601470508735443
0.8490737563232043
0.8453624047073711
0.8490737563232043
0.8601470508735443
0.8784048752090223
0.9035668847618201
0.9352700094407325
0.9730919862656235
1.0165750888103102
1.0652475842498528
1.1186414056238645
1.176305461424021
1.124807680927192
1.0652475842498528
1.00996688705415
0.9594519519326423
0.9142135623730951
0.874772708486752
0.8416407864998738
0.8152946437965904
0.7961481396815722
0.7845232578665129
0.7806248474865698
0.7845232578665129
0.7961481396815722
0.8152946437965907
0.8416407864998738
0.874772708486752
0.9142135623730951
0.9594519519326425
1.00996688705415
1.0652475842498528
1.124807680927192
1.07797338380595
1.01657508881031
0.9594519519326423
0.9071247279470289
0.8601470508735443
0.8190905958272918
0.7845232578665129
0.7569805089976533
0.736931687685298
0.7247448713915889
0.7206555615733703
0.7247448713915889
0.7369316876852983
0.7569805089976536
0.7845232578665129
0.8190905958272918
0.8601470508735443
0.9071247279470289
0.9594519519326423
1.0165750888103102
1.07797338380595
1.0362291495737217
0.9730919862656235
0.9142135623730951
0.8601470508735443
0.8114877048604001
0.7688577540449519
0.7328828005937953
0.7041594578792296
0.6832159566199232
0.6704699910719625
0.66619037896906
0.6704699910719625
0.6832159566199232
0.7041594578792296
0.7328828005937953
0.7688577540449519
0.8114877048604001
0.8601470508735445
0.9142135623730951
0.9730919862656238
1.0362291495737217
1
0.9352700094407325
0.874772708486752
0.8190905958272918
0.7688577540449519
0.7247448713915889
0.6874342087037917
0.6575836902790224
0.6357816691600546
0.6224972160321824
0.6180339887498949
0.6224972160321824
0.6357816691600546
0.6575836902790226
0.6874342087037917
0.7247448713915889
0.7688577540449522
0.819090595827292
0.874772708486752
0.9352700094407325
1
0.9696938456699069
0.9035668847618199
0.8416407864998738
0.7845232578665129
0.7328828005937953
0.6874342087037917
0.6489125293076057
0.6180339887498949
0.5954451150103321
0.5816653826391966
0.5770329614269007
0.5816653826391966
0.5954451150103321
0.6180339887498949
0.6489125293076057
0.6874342087037917
0.7328828005937953
0.7845232578665129
0.8416407864998738
0.9035668847618201
0.9696938456699069
0.9456832294800961
0.8784048752090221
0.8152946437965904
0.7569805089976533
0.7041594578792296
0.6575836902790224
0.6180339887498949
0.5862780491200215
0.5630145812734648
0.5488088481701514
0.5440306508910548
0.5488088481701516
0.563014581273465
0.5862780491200215
0.6180339887498949
0.6575836902790224
0.7041594578792296
0.7569805089976536
0.8152946437965904
0.8784048752090223
0.9456832294800961
0.92828568570857
0.8601470508735443
0.7961481396815722
0.736931687685298
0.6832159566199232
0.6357816691600546
0.5954451150103321
0.5630145812734648
0.5392304845413265
0.5246950765959599
0.519803902718557
0.5246950765959599
0.5392304845413265
0.5630145812734648
0.5954451150103324
0.6357816691600546
0.6832159566199232
0.7369316876852983
0.7961481396815722
0.8601470508735445
0.92828568570857
0.9177446878757824
0.8490737563232043
0.7845232578665129
0.7247448713915889
0.6704699910719625
0.6224972160321824
0.5816653826391966
0.5488088481701514
0.5246950765959599
0.5099504938362078
0.504987562112089
0.5099504938362078
0.5246950765959599
0.5488088481701516
0.5816653826391969
0.6224972160321824
0.6704699910719625
0.7247448713915892
0.7845232578665129
0.8490737563232043
0.9177446878757824
0.9142135623730951
0.8453624047073711
0.7806248474865698
0.7206555615733703
0.66619037896906
0.6180339887498949
0.5770329614269007
0.5440306508910548
0.519803902718557
0.504987562112089
0.5
0.504987562112089
0.519803902718557
0.5440306508910551
0.577032961426901
0.6180339887498949
0.6661903789690602
0.7206555615733703
0.7806248474865698
0.8453624047073711
0.9142135623730951
0.9177446878757824
0.8490737563232043
0.7845232578665129
0.7247448713915889
0.6704699910719625
0.6224972160321824
0.5816653826391966
0.5488088481701516
0.5246950765959599
0.5099504938362078
0.504987562112089
0.5099504938362078
0.5246950765959599
0.5488088481701516
0.5816653826391969
0.6224972160321824
0.6704699910719625
0.7247448713915892
0.7845232578665129
0.8490737563232043
0.9177446878757824
0.92828568570857
0.8601470508735443
0.7961481396815722
0.7369316876852983
0.6832159566199232
0.6357816691600546
0.5954451150103321
0.563014581273465
0.5392304845413265
0.5246950765959599
0.519803902718557
0.5246950765959599
0.5392304845413265
0.563014581273465
0.5954451150103324
0.6357816691600546
0.6832159566199232
0.7369316876852983
0.7961481396815722
0.8601470508735445
0.92828568570857
0.9456832294800961
0.8784048752090223
0.8152946437965907
0.7569805089976536
0.7041594578792296
0.6575836902790226
0.6180339887498949
0.5862780491200215
0.5630145812734648
0.5488088481701516
0.5440306508910551
0.5488088481701516
0.563014581273465
0.5862780491200217
0.6180339887498949
0.6575836902790226
0.7041594578792296
0.7569805089976536
0.8152946437965907
0.8784048752090223
0.9456832294800961
0.9696938456699069
0.9035668847618201
0.8416407864998738
0.7845232578665129
0.7328828005937953
0.6874342087037917
0.6489125293076057
0.6180339887498949
0.5954451150103324
0.5816653826391969
0.577032961426901
0.5816653826391969
0.5954451150103324
0.6180339887498949
0.6489125293076059
0.6874342087037917
0.7328828005937953
0.7845232578665131
0.8416407864998738
0.9035668847618201
0.9696938456699069
1
0.9352700094407325
0.874772708486752
0.8190905958272918
0.7688577540449519
0.7247448713915889
0.6874342087037917
0.6575836902790224
0.6357816691600546
0.6224972160321824
0.6180339887498949
0.6224972160321824
0.6357816691600546
0.6575836902790226
0.6874342087037917
0.7247448713915889
0.7688577540449522
0.819090595827292
0.874772708486752
0.9352700094407325
1
1.0362291495737217
0.9730919862656235
0.9142135623730951
0.8601470508735443
0.8114877048604001
0.7688577540449522
0.7328828005937953
0.7041594578792296
0.6832159566199232
0.6704699910719625
0.6661903789690602
0.6704699910719625
0.6832159566199232
0.7041594578792296
0.7328828005937953
0.7688577540449522
0.8114877048604001
0.8601470508735445
0.9142135623730951
0.9730919862656238
1.0362291495737217
1.07797338380595
1.0165750888103102
0.9594519519326425
0.9071247279470289
0.8601470508735445
0.819090595827292
0.7845232578665129
0.7569805089976536
0.7369316876852983
0.7247448713915892
0.7206555615733703
0.7247448713915892
0.7369316876852983
0.7569805089976536
0.7845232578665131
0.819090595827292
0.8601470508735445
0.9071247279470289
0.9594519519326425
1.0165750888103104
1.07797338380595
1.124807680927192
1.0652475842498528
1.00996688705415
0.9594519519326423
0.9142135623730951
0.874772708486752
0.8416407864998738
0.8152946437965904
0.7961481396815722
0.7845232578665129
0.7806248474865698
0.7845232578665129
0.7961481396815722
0.8152946437965907
0.8416407864998738
0.874772708486752
0.9142135623730951
0.9594519519326425
1.00996688705415
1.0652475842498528
1.124807680927192
1.1763054614240211
1.1186414056238645
1.0652475842498528
1.0165750888103102
0.9730919862656238
0.9352700094407325
0.9035668847618201
0.8784048752090223
0.8601470508735445
0.8490737563232043
0.8453624047073711
0.8490737563232043
0.8601470508735445
0.8784048752090223
0.9035668847618201
0.9352700094407325
0.9730919862656238
1.0165750888103104
1.0652475842498528
1.1186414056238647
1.1763054614240211
1.2320508075688772
1.176305461424021
1.124807680927192
1.07797338380595
1.0362291495737217
1
0.9696938456699069
0.9456832294800961
0.92828568570857
0.9177446878757824
0.9142135623730951
0.9177446878757824
0.92828568570857
0.9456832294800961
0.9696938456699069
1
1.0362291495737217
1.07797338380595
1.124807680927192
1.1763054614240211
1.2320508075688772
1.176305461424021
1.1186414056238645
1.0652475842498528
1.01657508881031
0.9730919862656235
0.9352700094407325
0.9035668847618199
0.8784048752090221
0.8601470508735443
0.8490737563232043
0.8453624047073711
0.8490737563232043
0.8601470508735443
0.8784048752090223
0.9035668847618201
0.9352700094407325
0.9730919862656235
1.0165750888103102
1.0652475842498528
1.1186414056238645
1.176305461424021
1.1186414056238645
1.0588457268119895
1.003329637837291
0.952583904633395
0.9071247279470289
0.8674794331177345
0.8341664064126333
0.8076696830622021
0.7884098726725126
0.7767145334803705
0.7727922061357855
0.7767145334803705
0.7884098726725126
0.8076696830622021
0.8341664064126335
0.8674794331177345
0.9071247279470289
0.952583904633395
1.003329637837291
1.0588457268119897
1.1186414056238645
1.0652475842498528
1.003329637837291
0.9456832294800961
0.892838827718412
0.8453624047073711
0.8038404810405297
0.7688577540449522
0.7409673645990857
0.7206555615733703
0.7083045973594573
0.7041594578792296
0.7083045973594573
0.7206555615733703
0.7409673645990857
0.7688577540449522
0.8038404810405297
0.8453624047073711
0.892838827718412
0.9456832294800961
1.0033296378372911
1.0652475842498528
1.01657508881031
0.952583904633395
0.892838827718412
0.8379088160259651
0.7884098726725126
0.7449899597988732
0.7083045973594573
0.6789826122551597
0.6575836902790224
0.6445523142259597
0.640175425099138
0.6445523142259597
0.6575836902790226
0.6789826122551597
0.7083045973594573
0.7449899597988732
0.7884098726725126
0.8379088160259653
0.892838827718412
0.952583904633395
1.01657508881031
0.9730919862656235
0.9071247279470289
0.8453624047073711
0.7884098726725126
0.7369316876852983
0.6916375287812984
0.6532562594670797
0.6224972160321824
0.6000000000000001
0.5862780491200217
0.5816653826391966
0.5862780491200217
0.6000000000000001
0.6224972160321824
0.6532562594670797
0.6916375287812984
0.7369316876852983
0.7884098726725126
0.8453624047073711
0.9071247279470289
0.9730919862656235
0.9352700094407325
0.8674794331177345
0.8038404810405297
0.7449899597988732
0.6916375287812984
0.6445523142259597
0.6045361017187261
0.5723805294763609
0.5488088481701516
0.53440804327886
0.5295630140987
0.53440804327886
0.5488088481701516
0.5723805294763609
0.6045361017187261
0.6445523142259597
0.6916375287812986
0.7449899597988734
0.8038404810405297
0.8674794331177345
0.9352700094407325
0.9035668847618199
0.8341664064126333
0.7688577540449522
0.7083045973594573
0.6532562594670797
0.6045361017187261
0.5630145812734648
0.5295630140987
0.504987562112089
0.4899494936611666
0.4848857801796105
0.4899494936611666
0.504987562112089
0.5295630140987
0.563014581273465
0.6045361017187261
0.6532562594670797
0.7083045973594573
0.7688577540449522
0.8341664064126335
0.9035668847618199
0.8784048752090221
0.8076696830622021
0.7409673645990857
0.6789826122551597
0.6224972160321824
0.5723805294763609
0.5295630140987
0.49498743710661997
0.46953597148326576
0.45393920141694566
0.44868329805051377
0.45393920141694566
0.46953597148326587
0.49498743710661997
0.5295630140987
0.5723805294763609
0.6224972160321824
0.6789826122551597
0.7409673645990857
0.8076696830622023
0.8784048752090221
0.8601470508735443
0.7884098726725126
0.7206555615733703
0.6575836902790224
0.6000000000000001
0.5488088481701516
0.504987562112089
0.46953597148326576
0.44339811320566036
0.42736184954957035
0.42195444572928875
0.42736184954957046
0.44339811320566047
0.46953597148326587
0.5049875621120892
0.5488088481701516
0.6000000000000001
0.6575836902790226
0.7206555615733703
0.7884098726725126
0.8601470508735443
0.8490737563232043
0.7767145334803705
0.7083045973594573
0.6445523142259597
0.5862780491200217
0.53440804327886
0.4899494936611666
0.45393920141694566
0.42736184954957035
0.4110433579144299
0.40553851381374173
0.4110433579144299
0.42736184954957046
0.45393920141694566
0.4899494936611667
0.53440804327886
0.5862780491200217
0.6445523142259599
0.7083045973594573
0.7767145334803707
0.8490737563232043
0.8453624047073711
0.7727922061357855
0.7041594578792296
0.640175425099138
0.5816653826391966
0.5295630140987
0.4848857801796105
0.44868329805051377
0.42195444572928875
0.40553851381374173
0.4
0.40553851381374173
0.42195444572928875
0.4486832980505139
0.4848857801796106
0.5295630140987
0.5816653826391969
0.640175425099138
0.7041594578792296
0.7727922061357857
0.8453624047073711
0.8490737563232043
0.7767145334803705
0.7083045973594573
0.6445523142259597
0.5862780491200217
0.53440804327886
0.4899494936611666
0.45393920141694566
0.42736184954957046
0.4110433579144299
0.40553851381374173
0.4110433579144299
0.42736184954957046
0.45393920141694577
0.4899494936611667
0.53440804327886
0.5862780491200217
0.6445523142259599
0.7083045973594573
0.7767145334803707
0.8490737563232043
0.8601470508735443
0.7884098726725126
0.7206555615733703
0.6575836902790226
0.6000000000000001
0.5488088481701516
0.504987562112089
0.46953597148326587
0.44339811320566047
0.42736184954957046
0.42195444572928875
0.42736184954957046
0.44339811320566047
0.46953597148326587
0.5049875621120892
0.5488088481701516
0.6000000000000001
0.6575836902790226
0.7206555615733703
0.7884098726725126
0.8601470508735443
0.8784048752090223
0.8076696830622021
0.7409673645990857
0.6789826122551597
0.6224972160321824
0.5723805294763609
0.5295630140987
0.49498743710661997
0.46953597148326587
0.45393920141694566
0.4486832980505139
0.45393920141694577
0.46953597148326587
0.49498743710661997
0.5295630140987
0.5723805294763609
0.6224972160321824
0.6789826122551597
0.7409673645990857
0.8076696830622023
0.8784048752090223
0.9035668847618201
0.8341664064126335
0.7688577540449522
0.7083045973594573
0.6532562594670797
0.6045361017187261
0.563014581273465
0.5295630140987
0.5049875621120892
0.4899494936611667
0.4848857801796106
0.4899494936611667
0.5049875621120892
0.5295630140987
0.563014581273465
0.6045361017187261
0.6532562594670797
0.7083045973594573
0.7688577540449522
0.8341664064126335
0.9035668847618201
0.9352700094407325
0.8674794331177345
0.8038404810405297
0.7449899597988732
0.6916375287812984
0.6445523142259597
0.6045361017187261
0.5723805294763609
0.5488088481701516
0.53440804327886
0.5295630140987
0.53440804327886
0.5488088481701516
0.5723805294763609
0.6045361017187261
0.6445523142259597
0.6916375287812986
0.7449899597988734
0.8038404810405297
0.8674794331177345
0.9352700094407325
0.9730919862656235
0.9071247279470289
0.8453624047073711
0.7884098726725126
0.7369316876852983
0.6916375287812986
0.6532562594670797
0.6224972160321824
0.6000000000000001
0.5862780491200217
0.5816653826391969
0.5862780491200217
0.6000000000000001
0.6224972160321824
0.6532562594670797
0.6916375287812986
0.7369316876852983
0.7884098726725126
0.8453624047073711
0.9071247279470289
0.9730919862656235
1.0165750888103102
0.952583904633395
0.892838827718412
0.8379088160259653
0.7884098726725126
0.7449899597988734
0.7083045973594573
0.6789826122551597
0.6575836902790226
0.6445523142259599
0.640175425099138
0.6445523142259599
0.6575836902790226
0.6789826122551597
0.7083045973594573
0.7449899597988734
0.7884098726725126
0.8379088160259653
0.892838827718412
0.952583904633395
1.0165750888103102
1.0652475842498528
1.003329637837291
0.9456832294800961
0.892838827718412
0.8453624047073711
0.8038404810405297
0.7688577540449522
0.7409673645990857
0.7206555615733703
0.7083045973594573
0.7041594578792296
0.7083045973594573
0.7206555615733703
0.7409673645990857
0.7688577540449522
0.8038404810405297
0.8453624047073711
0.892838827718412
0.9456832294800961
1.0033296378372911
1.0652475842498528
1.1186414056238645
1.0588457268119897
1.0033296378372911
0.952583904633395
0.9071247279470289
0.8674794331177345
0.8341664064126335
0.8076696830622023
0.7884098726725126
0.7767145334803707
0.7727922061357857
0.7767145334803707
0.7884098726725126
0.8076696830622023
0.8341664064126335
0.8674794331177345
0.9071247279470289
0.952583904633395
1.0033296378372911
1.0588457268119897
1.1186414056238645
1.176305461424021
1.1186414056238645
1.0652475842498528
1.01657508881031
0.9730919862656235
0.9352700094407325
0.9035668847618199
0.8784048752090221
0.8601470508735443
0.8490737563232043
0.8453624047073711
0.8490737563232043
0.8601470508735443
0.8784048752090223
0.9035668847618201
0.9352700094407325
0.9730919862656235
1.0165750888103102
1.0652475842498528
1.1186414056238645
1.176305461424021
1.124807680927192
1.0652475842498528
1.00996688705415
0.9594519519326423
0.9142135623730951
0.874772708486752
0.8416407864998738
0.8152946437965904
0.7961481396815722
0.7845232578665129
0.7806248474865698
0.7845232578665129
0.7961481396815722
0.8152946437965907
0.8416407864998738
0.874772708486752
0.9142135623730951
0.9594519519326425
1.00996688705415
1.0652475842498528
1.124807680927192
1.0652475842498528
1.003329637837291
0.9456832294800961
0.892838827718412
0.8453624047073711
0.8038404810405297
0.7688577540449522
0.7409673645990857
0.7206555615733703
0.7083045973594573
0.7041594578792296
0.7083045973594573
0.7206555615733703
0.7409673645990857
0.7688577540449522
0.8038404810405297
0.8453624047073711
0.892838827718412
0.9456832294800961
1.0033296378372911
1.0652475842498528
1.00996688705415
0.9456832294800961
0.8856406460551021
0.8304134695650072
0.7806248474865698
0.7369316876852983
0.7000000000000002
0.6704699910719625
0.6489125293076059
0.6357816691600549
0.6313708498984762
0.6357816691600549
0.6489125293076059
0.6704699910719627
0.7000000000000002
0.7369316876852983
0.7806248474865698
0.8304134695650072
0.8856406460551021
0.9456832294800963
1.00996688705415
0.9594519519326423
0.892838827718412
0.8304134695650072
0.7727922061357855
0.7206555615733703
0.6747340124470731
0.6357816691600546
0.6045361017187261
0.5816653826391966
0.5677078252031311
0.563014581273465
0.5677078252031311
0.5816653826391969
0.6045361017187261
0.6357816691600546
0.6747340124470731
0.7206555615733703
0.7727922061357857
0.8304134695650072
0.892838827718412
0.9594519519326423
0.9142135623730951
0.8453624047073711
0.7806248474865698
0.7206555615733703
0.6661903789690602
0.6180339887498949
0.577032961426901
0.5440306508910551
0.519803902718557
0.5049875621120892
0.5
0.5049875621120892
0.519803902718557
0.5440306508910551
0.577032961426901
0.6180339887498949
0.6661903789690602
0.7206555615733705
0.7806248474865698
0.8453624047073711
0.9142135623730951
0.874772708486752
0.8038404810405297
0.7369316876852983
0.6747340124470731
0.6180339887498949
0.5677078252031311
0.5246950765959599
0.4899494936611666
0.46436507609929556
0.4486832980505139
0.44339811320566047
0.4486832980505139
0.46436507609929556
0.4899494936611667
0.5246950765959599
0.5677078252031311
0.6180339887498949
0.6747340124470731
0.7369316876852983
0.80384048104053
0.874772708486752
0.8416407864998738
0.7688577540449522
0.7000000000000002
0.6357816691600546
0.577032961426901
0.5246950765959599
0.4797958971132712
0.44339811320566036
0.4165151389911681
0.4
0.39442719099991586
0.4
0.4165151389911681
0.44339811320566047
0.4797958971132713
0.5246950765959599
0.577032961426901
0.6357816691600549
0.7000000000000002
0.7688577540449522
0.8416407864998738
0.8152946437965904
0.7409673645990857
0.6704699910719625
0.6045361017187261
0.5440306508910551
0.4899494936611666
0.44339811320566036
0.40553851381374173
0.37749643873921224
0.36023252670426276
0.3544003745317532
0.36023252670426276
0.37749643873921224
0.40553851381374173
0.44339811320566047
0.4899494936611666
0.5440306508910551
0.6045361017187261
0.6704699910719625
0.7409673645990857
0.8152946437965904
0.7961481396815722
0.7206555615733703
0.6489125293076059
0.5816653826391966
0.519803902718557
0.46436507609929556
0.4165151389911681
0.37749643873921224
0.34852813742385713
0.33066238629180755
0.32462112512353225
0.33066238629180755
0.34852813742385713
0.37749643873921224
0.4165151389911681
0.46436507609929556
0.519803902718557
0.5816653826391969