# vtk DataFile Version 4.1
Header:
ASCII

DATASET UNSTRUCTURED_GRID
POINTS 64000 double
-0.9749999999999999 -0.9749999999999999 -0.9749999999999999
-0.975 -0.975 -0.9249999999999999
-0.9750000000000001 -0.9750000000000001 -0.8750000000000001
-0.9749999999999999 -0.9749999999999999 -0.8249999999999998
-0.975 -0.975 -0.7749999999999999
-0.9749999999999999 -0.9749999999999999 -0.7249999999999999
-0.975 -0.975 -0.6749999999999999
-0.975 -0.975 -0.625
-0.9750000000000001 -0.9750000000000001 -0.575
-0.9749999999999999 -0.9749999999999999 -0.525
-0.9750000000000001 -0.925 -0.975
-0.9750000000000001 -0.9249999999999999 -0.9249999999999999
-0.9750000000000002 -0.925 -0.8750000000000001
-0.975 -0.925 -0.825
-0.9750000000000001 -0.9249999999999999 -0.775
-0.975 -0.9250000000000002 -0.7250000000000001
-0.9750000000000001 -0.9249999999999999 -0.6749999999999999
-0.975 -0.9249999999999999 -0.625
-0.9750000000000001 -0.9249999999999999 -0.575
-0.975 -0.9249999999999999 -0.5249999999999999
-0.975 -0.875 -0.975
-0.975 -0.875 -0.9249999999999999
-0.9749999999999998 -0.8749999999999998 -0.8749999999999998
-0.975 -0.8749999999999998 -0.825
-0.9749999999999999 -0.8749999999999999 -0.775
-0.9749999999999999 -0.8749999999999999 -0.7249999999999999
-0.9749999999999999 -0.8749999999999999 -0.6749999999999998
-0.9749999999999998 -0.8749999999999998 -0.6249999999999998
-0.975 -0.875 -0.575
-0.9749999999999999 -0.8749999999999999 -0.5249999999999999
-0.9749999999999999 -0.8249999999999998 -0.9749999999999999
-0.975 -0.825 -0.925
-0.9749999999999999 -0.825 -0.8749999999999998
-0.9749999999999999 -0.825 -0.8249999999999998
-0.975 -0.825 -0.7749999999999999
-0.9750000000000001 -0.825 -0.7250000000000001
-0.9749999999999999 -0.8249999999999998 -0.6749999999999999
-0.975 -0.825 -0.625
-0.9750000000000001 -0.8250000000000001 -0.575
-0.9749999999999999 -0.825 -0.5249999999999999
-0.9749999999999999 -0.7749999999999998 -0.9749999999999999
-0.9749999999999998 -0.7749999999999999 -0.9249999999999998
-0.9749999999999999 -0.7749999999999999 -0.875
-0.975 -0.7749999999999999 -0.825
-0.975 -0.775 -0.775
-0.975 -0.7750000000000001 -0.725
-0.9750000000000001 -0.7750000000000001 -0.675
-0.9749999999999999 -0.7749999999999998 -0.6249999999999999
-0.9749999999999999 -0.775 -0.575
-0.9749999999999999 -0.7749999999999999 -0.5249999999999999
-0.9749999999999999 -0.7249999999999999 -0.9749999999999999
-0.9749999999999998 -0.725 -0.9249999999999998
-0.975 -0.725 -0.875
-0.975 -0.7249999999999999 -0.825
-0.975 -0.725 -0.775
-0.9750000000000001 -0.725 -0.725
-0.9750000000000001 -0.7250000000000001 -0.6749999999999999
-0.9749999999999998 -0.7249999999999999 -0.6249999999999999
-0.975 -0.7249999999999999 -0.575
-0.9749999999999999 -0.7249999999999999 -0.5249999999999999
-0.975 -0.6749999999999998 -0.9749999999999999
-0.975 -0.6749999999999998 -0.9249999999999998
-0.975 -0.6749999999999998 -0.8749999999999998
-0.9749999999999998 -0.6749999999999999 -0.8249999999999998
-0.9750000000000001 -0.675 -0.7750000000000001
-0.975 -0.6749999999999999 -0.725
-0.9749999999999999 -0.6749999999999999 -0.6749999999999999
-0.9749999999999999 -0.6749999999999998 -0.6249999999999999
-0.975 -0.6749999999999999 -0.575
-0.9749999999999999 -0.6749999999999999 -0.5249999999999999
-0.9749999999999999 -0.6249999999999999 -0.975
-0.9749999999999999 -0.6249999999999999 -0.9249999999999998
-0.9749999999999998 -0.6249999999999998 -0.8749999999999998
-0.9749999999999999 -0.6249999999999999 -0.8249999999999997
-0.9749999999999999 -0.6249999999999999 -0.7749999999999999
-0.9749999999999999 -0.6249999999999999 -0.7249999999999999
-0.9749999999999999 -0.625 -0.6749999999999999
-0.9749999999999999 -0.6249999999999998 -0.6249999999999998
-0.9749999999999999 -0.6249999999999999 -0.575
-0.9749999999999999 -0.6249999999999998 -0.5249999999999999
-0.9749999999999999 -0.575 -0.975
-0.975 -0.575 -0.9249999999999998
-0.9750000000000001 -0.575 -0.8750000000000001
-0.975 -0.575 -0.825
-0.975 -0.575 -0.775
-0.9749999999999999 -0.575 -0.7250000000000001
-0.9750000000000001 -0.575 -0.6749999999999999
-0.9749999999999999 -0.575 -0.6249999999999999
-0.975 -0.575 -0.575
-0.9749999999999999 -0.575 -0.5249999999999999
-0.9749999999999999 -0.525 -0.9749999999999999
-0.975 -0.5249999999999999 -0.9249999999999999
-0.975 -0.525 -0.8750000000000001
-0.9749999999999999 -0.5249999999999999 -0.8249999999999997
-0.9750000000000001 -0.525 -0.775
-0.9750000000000001 -0.525 -0.725
-0.9749999999999999 -0.5249999999999999 -0.6749999999999998
-0.9749999999999999 -0.5249999999999999 -0.6249999999999999
-0.975 -0.525 -0.575
-0.9749999999999999 -0.5249999999999999 -0.5249999999999999
-0.925 -0.9750000000000001 -0.975
-0.9249999999999999 -0.9750000000000001 -0.9249999999999999
-0.925 -0.9750000000000002 -0.8750000000000001
-0.925 -0.975 -0.825
-0.9249999999999999 -0.975 -0.7750000000000001
-0.9250000000000002 -0.975 -0.725
-0.9249999999999999 -0.9750000000000001 -0.6749999999999999
-0.9249999999999999 -0.975 -0.625
-0.9249999999999999 -0.9750000000000001 -0.575
-0.9249999999999999 -0.975 -0.525
-0.9249999999999998 -0.9249999999999998 -0.975
-0.9249999999999998 -0.9249999999999998 -0.9249999999999999
-0.9249999999999999 -0.9249999999999999 -0.8749999999999999
-0.925 -0.925 -0.8249999999999998
-0.9249999999999999 -0.9249999999999999 -0.7749999999999999
-0.925 -0.925 -0.725
-0.925 -0.925 -0.675
-0.9249999999999998 -0.9249999999999998 -0.6249999999999999
-0.925 -0.925 -0.5750000000000001
-0.9249999999999998 -0.9249999999999998 -0.5249999999999999
-0.925 -0.8750000000000001 -0.9750000000000002
-0.925 -0.875 -0.9249999999999999
-0.9249999999999998 -0.875 -0.875
-0.9249999999999999 -0.8750000000000001 -0.825
-0.9249999999999999 -0.8750000000000001 -0.775
-0.925 -0.8750000000000001 -0.725
-0.925 -0.8750000000000001 -0.675
-0.9249999999999998 -0.8749999999999999 -0.6249999999999999
-0.925 -0.8750000000000001 -0.575
-0.925 -0.875 -0.525
-0.9249999999999999 -0.825 -0.9749999999999999
-0.925 -0.8249999999999998 -0.9249999999999999
-0.9249999999999999 -0.825 -0.8750000000000001
-0.9249999999999998 -0.8249999999999998 -0.825
-0.925 -0.8249999999999998 -0.7749999999999999
-0.9249999999999999 -0.8250000000000001 -0.7250000000000001
-0.9249999999999999 -0.825 -0.6749999999999998
-0.9249999999999999 -0.8249999999999998 -0.6249999999999999
-0.9249999999999999 -0.825 -0.575
-0.9249999999999999 -0.825 -0.5249999999999999
-0.9249999999999999 -0.775 -0.9749999999999999
-0.925 -0.775 -0.925
-0.925 -0.7750000000000001 -0.8750000000000001
-0.925 -0.7749999999999999 -0.825
-0.925 -0.775 -0.7750000000000001
-0.925 -0.7750000000000001 -0.7250000000000001
-0.9250000000000002 -0.7750000000000002 -0.6750000000000002
-0.9249999999999999 -0.775 -0.625
-0.925 -0.7750000000000001 -0.5750000000000001
-0.925 -0.775 -0.5249999999999999
-0.9249999999999998 -0.7249999999999999 -0.9749999999999999
-0.925 -0.725 -0.925
-0.925 -0.725 -0.8750000000000001
-0.925 -0.7249999999999999 -0.825
-0.925 -0.7250000000000002 -0.7750000000000001
-0.925 -0.7250000000000001 -0.7250000000000001
-0.925 -0.7250000000000001 -0.675
-0.9249999999999998 -0.7249999999999999 -0.625
-0.9250000000000003 -0.7250000000000001 -0.5750000000000001
-0.925 -0.7250000000000001 -0.5249999999999999
-0.925 -0.6749999999999999 -0.975
-0.9250000000000003 -0.675 -0.9250000000000002
-0.9250000000000002 -0.675 -0.8750000000000001
-0.925 -0.6749999999999999 -0.825
-0.925 -0.6750000000000002 -0.7750000000000001
-0.925 -0.6749999999999999 -0.7250000000000001
-0.925 -0.675 -0.675
-0.925 -0.6749999999999999 -0.625
-0.925 -0.675 -0.5750000000000001
-0.925 -0.675 -0.525
-0.9249999999999999 -0.625 -0.975
-0.9249999999999998 -0.625 -0.925
-0.9249999999999998 -0.6249999999999999 -0.875
-0.9249999999999998 -0.6249999999999999 -0.825
-0.9249999999999999 -0.625 -0.775
-0.9249999999999998 -0.625 -0.7249999999999999
-0.9249999999999999 -0.625 -0.6749999999999999
-0.9249999999999998 -0.6249999999999999 -0.6249999999999999
-0.925 -0.625 -0.575
-0.9249999999999999 -0.625 -0.5249999999999999
-0.9249999999999999 -0.575 -0.975
-0.9249999999999999 -0.5750000000000001 -0.9250000000000002
-0.925 -0.575 -0.8750000000000001
-0.925 -0.575 -0.8249999999999998
-0.9249999999999999 -0.5750000000000001 -0.7749999999999999
-0.925 -0.575 -0.7250000000000001
-0.925 -0.5750000000000001 -0.675
-0.9249999999999999 -0.575 -0.625
-0.925 -0.5750000000000001 -0.5750000000000001
-0.9249999999999999 -0.575 -0.5249999999999999
-0.925 -0.525 -0.975
-0.9249999999999999 -0.525 -0.9249999999999999
-0.925 -0.525 -0.8750000000000001
-0.925 -0.5249999999999999 -0.825
-0.9249999999999999 -0.5250000000000001 -0.775
-0.925 -0.525 -0.7250000000000001
-0.925 -0.525 -0.675
-0.9249999999999999 -0.5249999999999999 -0.625
-0.925 -0.525 -0.5750000000000001
-0.9249999999999999 -0.5249999999999999 -0.5249999999999999
-0.875 -0.975 -0.975
-0.875 -0.975 -0.9249999999999999
-0.8749999999999998 -0.9749999999999998 -0.8749999999999998
-0.875 -0.975 -0.825
-0.8749999999999999 -0.9749999999999999 -0.7749999999999999
-0.8749999999999999 -0.9749999999999999 -0.7249999999999999
-0.8749999999999999 -0.975 -0.6749999999999999
-0.8749999999999998 -0.9749999999999998 -0.6249999999999999
-0.875 -0.9750000000000001 -0.5750000000000001
-0.8749999999999999 -0.9749999999999999 -0.525
-0.8750000000000001 -0.925 -0.9750000000000002
-0.8750000000000001 -0.9249999999999999 -0.9249999999999999
-0.8749999999999998 -0.9249999999999998 -0.8749999999999999
-0.875 -0.9249999999999998 -0.825
-0.875 -0.9249999999999999 -0.775
-0.8750000000000001 -0.925 -0.7250000000000001
-0.8750000000000001 -0.9250000000000002 -0.675
-0.8749999999999999 -0.9249999999999999 -0.625
-0.8750000000000001 -0.925 -0.5750000000000001
-0.875 -0.925 -0.525
-0.8749999999999998 -0.8749999999999998 -0.9749999999999998
-0.8749999999999998 -0.8749999999999999 -0.9249999999999998
-0.875 -0.875 -0.875
-0.8750000000000001 -0.875 -0.825
-0.875 -0.875 -0.7750000000000001
-0.875 -0.875 -0.725
-0.875 -0.875 -0.6749999999999998
-0.875 -0.875 -0.625
[...]
POINT_DATA 64000
SCALARS level_set double 1
LOOKUP_TABLE default
1.18976212054641
1.1618894474739818
1.1340660826468059
1.1083171923983914
1.0827295958744063
1.0593124473137854
1.0361899554547542
1.0153178383386399
0.9948957567736181
0.9767811819867572
1.1618894474739818
1.1330574195739036
1.1052340547467276
1.0785371440597218
1.0529495475357367
1.0286132998159654
1.0054908079569342
0.983749256684591
0.963327175119569
0.9444161867071235
1.1341249781804397
1.1052929502803615
1.0764650083337182
1.0497680976467123
1.0231883716975279
0.9988521239777566
0.9747702479011638
0.9530286966288207
0.9317040966698378
0.9127931082573921
1.1083760879320252
1.0785960395933558
1.0497680976467123
1.022127749048861
0.9955480230996765
0.9702905555389227
0.94620867946233
0.9235894846825565
0.9022648847235735
0.8825444577804018
1.0828595087286366
1.0530794603899671
1.0232614900468127
0.9956211414489613
0.9680561384398387
0.9427986708790848
0.9177565705660862
0.8951373757863127
0.8729024264763637
0.8531819995331922
1.0594423601680156
1.0287432126701956
0.9989252423270413
0.9703636738882074
0.9427986708790848
0.916635058886278
0.8915929585732795
0.8681041200365371
0.8458691707265883
0.8253409432034621
1.0364034606719583
1.0057043131741383
0.9749317143750729
0.946370145936239
0.9178477591299211
0.8916841471371143
0.8657015948600285
0.8422127563232862
0.8190790963149195
0.7985508687917934
1.0155313435558442
0.9839627619017952
0.9531901631027296
0.9237509511564653
0.8952285643501476
0.8681953086003722
0.8422127563232863
0.8178830833167143
0.7947494233083476
0.7734344479006234
0.9952050737134498
0.9636364920594007
0.9319692420055192
0.902530030059255
0.873103664165066
0.8460704084152907
0.8191929416015904
0.7948632685950183
0.7708676731367626
0.7495526977290385
0.9770904989265891
0.9447255036469553
0.9130582535930736
0.8828096031160834
0.8533832372218946
0.8255421808921644
0.7986647140784642
0.7735482931872943
0.7495526977290385
0.727496256402357
1.1618894474739818
1.1330574195739036
1.1052340547467276
1.0785371440597218
1.0529495475357367
1.0286132998159654
1.0054908079569342
0.983749256684591
0.963327175119569
0.9444161867071235
1.1330574195739036
1.1031595801679661
1.0753362153407902
1.0475781708534408
1.0219905743294557
0.9966177077275077
0.9734952158684766
0.9507656275252937
0.9303435459602717
0.9105208985456245
1.1052929502803615
1.0753951108744242
1.0465671689277807
1.0188091244404314
0.9922293984912469
0.966856531889299
0.9427746558127065
0.9200450674695233
0.8987204675105405
0.8788978200958931
1.0785960395933556
1.0476370663870749
1.0188091244404314
0.989985920261834
0.9634061943126495
0.9369839934318076
0.9129021173552149
0.8891639058496945
0.8678393058907115
0.8470783440572909
1.053079460389967
1.0221204871836862
0.9923025168405317
0.9634793126619343
0.9359143096528117
0.9094921087719696
0.8844500084589709
0.8607117969534506
0.8384768476435017
0.817715885810081
1.0287432126701956
0.9967476205817383
0.9669296502385838
0.9370571117810923
0.9094921087719696
0.8820271029257463
0.8569850026127477
0.8322355309360213
0.8100005816260725
0.7882906251892527
1.0057043131741383
0.9737087210856809
0.9429361222866153
0.9130635838291238
0.884541197022806
0.8570761911765825
0.8310936388994968
0.8063441672227705
0.7832105072144038
0.761500550777584
0.9839627619017952
0.9509791327424978
0.9202065339434322
0.8893253723236033
0.8608029855172855
0.8323267194998563
0.8063441672227705
0.7806050747291633
0.7574714147207965
0.7348243352687966
0.9636364920594008
0.9306528629001034
0.8989856128462219
0.8681044512263929
0.838678085332204
0.8102018193147749
0.7833243525010746
0.7575852600074673
0.7335896645492116
0.7109425850972118
0.9447255036469552
0.9108302154854562
0.8791629654315747
0.8473434893929722
0.8179171234987834
0.788491862877955
0.7616143960642549
0.7349381805554676
0.7109425850972118
0.6873999778195424
1.1341249781804397
1.1052929502803615
1.0764650083337182
1.0497680976467123
1.0231883716975279
0.9988521239777566
0.9747702479011638
0.9530286966288207
0.9317040966698378
0.9127931082573921
1.1052929502803615
1.0753951108744242
1.0465671689277807
1.0188091244404314
0.9922293984912469
0.966856531889299
0.9427746558127064
0.9200450674695234
0.8987204675105405
0.8788978200958931
1.0765238562784671
1.0466260168725297
1.0166760802353414
0.9889180357479922
0.9612209565907698
0.9358480899888217
0.9106765016947066
0.8879469133515235
0.8655884341245905
0.8457657867099433
1.0498269455914613
1.0188679723851803
0.9889180357479922
0.9600948315693948
0.9323977524121723
0.9059755515313304
0.880803963237215
0.8570657517316945
0.8347072725047616
0.8139463106713409
1.0233191895674096
0.9923602163611287
0.9612953332182725
0.9324721290396751
0.903654689060903
0.8772324881800608
0.8509580665699952
0.8272198550644746
0.8038052130071606
0.7830442511737399
0.9989829418476383
0.9669873497591808
0.9359224666163246
0.9060499281588331
0.8772324881800608
0.8497674823338374
0.8234930607237717
0.7987435890470455
0.7753289469897313
0.7536189905529116
0.9749869111567776
0.9429913190683201
0.9108422604231434
0.8809697219656518
0.8510528297373396
0.8235878238911163
0.7962207665744532
0.7714712948977269
0.7470000210282396
0.7252900645914199
0.9532453598844344
0.9202617307251371
0.8881126720799604
0.8572315104601314
0.8273146182318193
0.79883835221439
0.771471294897727
0.7457322024041197
0.7212609285346322
0.6986138490826325
0.932020352241257
0.8990367230819597
0.8658630854104896
0.8349819237906606
0.8040165924431383
0.775540326425709
0.747121361369349
0.7213822688757418
0.6958837232254473
0.6732366437734475
0.9131093638288115
0.8792140756673125
0.8460404379958424
0.81422096195724
0.7832556306097176
0.7538303699888893
0.7254114049325293
0.698735189423742
0.6732366437734475
0.6496940364957782
1.1083760879320252
1.0785960395933558
1.0497680976467123
1.022127749048861
0.9955480230996765
0.9702905555389227
0.9462086794623299
0.9235894846825565
0.9022648847235735
0.8825444577804018
1.0785960395933556
1.0476370663870749
1.0188091244404314
0.989985920261834
0.9634061943126495
0.9369839934318076
0.9129021173552149
0.8891639058496945
0.8678393058907115
0.8470783440572907
1.0498269455914613
1.0188679723851803
0.9889180357479922
0.9600948315693948
0.9323977524121724
0.9059755515313304
0.880803963237215
0.8570657517316945
0.8347072725047616
0.8139463106713409
1.02218659699361
0.9900447682065829
0.9600948315693948
0.9300735398568978
0.9023764606996753
0.8747628724546279
0.8495912841605125
0.8246969731212939
0.802338493894361
0.7804919139937252
0.9956788409695584
0.9635370121825313
0.9324721290396751
0.902450837327178
0.8736333973484058
0.8460198091033584
0.8197453874932927
0.794851076454074
0.7714364343967598
0.7495898544961241
0.9704213734088044
0.9371148113016894
0.906049928158833
0.8748372490821306
0.8460198091033584
0.8172091773887475
0.7909347557786818
0.7648664334974743
0.74145179144016
0.7184910168770116
0.9464253427179437
0.9131187806108285
0.8809697219656518
0.8497570428889494
0.8198401506606373
0.7910295189460265
0.7636624616293635
0.7375941393481558
0.7131228654786684
0.6901620909155197
0.9238061479381702
0.889380569105308
0.8572315104601312
0.8248627318497307
0.7949458396214186
0.7649611966648189
0.7375941393481558
0.7103615480460006
0.6858902741765133
0.6618120790669306
0.9025811402949928
0.8681555614621308
0.8349819237906608
0.8026131451802601
0.7716478138327375
0.7416631708761379
0.7132442058197779
0.6860116145176227
0.6605130688673283
0.6364348737577457
0.8828607133518213
0.8473945996287101
0.8142209619572401
0.7807665652796243
0.7498012339321017
0.7187023963129893
0.6902834312566293
0.6619334194080402
0.6364348737577458
0.6112717919843638
1.0828595087286366
1.0530794603899671
1.0232614900468127
0.9956211414489613
0.9680561384398387
0.9427986708790848
0.9177565705660862
0.8951373757863127
0.8729024264763637
0.8531819995331922
1.053079460389967
1.0221204871836862
0.9923025168405317
0.9634793126619343
0.9359143096528117
0.9094921087719696
0.884450008458971
0.8607117969534506
0.8384768476435017
0.817715885810081
1.0233191895674096
0.9923602163611287
0.9612953332182725
0.9324721290396751
0.903654689060903
0.8772324881800608
0.8509580665699952
0.8272198550644746
0.8038052130071606
0.7830442511737399
0.9956788409695583
0.9635370121825313
0.9324721290396751
0.9024508373271781
0.8736333973484058
0.8460198091033584
0.8197453874932926
0.794851076454074
0.7714364343967599
0.7495898544961241
0.9681854328838563
0.9360436040968293
0.9037289802603148
0.8737076885478178
0.8436217419527492
0.8160081537077017
0.7884718379786995
0.7635775269394808
0.738941268234365
0.7170946883337292
0.9429279653231024
0.9096214032159873
0.8773067793794729
0.8460941003027703
0.8160081537077017
0.7871975219930909
0.7596612062640887
0.733592883982881
0.7089566252777653
0.6859958507146167
0.9179724456143104
0.8846658835071951
0.8511252494185859
0.8199125703418835
0.7885686767097924
0.7597580449951816
0.730955916030991
0.7048875937497833
0.6790112838984534
0.6560505093353047
0.8953532508345368
0.8609276720016745
0.8273870379130656
0.7950182593026649
0.7636743656705738
0.733689722713974
0.7048875937497832
0.6776550024476281
0.6517786925962983
0.6277004974867157
0.8732200313202134
0.8387944524873512
0.8040849041750463
0.7717161255646456
0.7391598172483957
0.709175174291796
0.6791387881891856
0.6519061968870303
0.6248058987145416
0.6007277036049591
0.8534996043770418
0.8180334906539306
0.7833239423416256
0.7498695456640099
0.71731323734776
0.6862143997286474
0.6561780136260369
0.6278280017774478
0.6007277036049591
0.5755646218315772
1.0594423601680156
1.0287432126701956
0.9989252423270413
0.9703636738882074
0.9427986708790848
0.916635058886278
0.8915929585732795
0.8681041200365371
0.8458691707265883
0.8253409432034621
1.0287432126701956
0.9967476205817383
0.9669296502385838
0.9370571117810923
0.9094921087719696
0.8820271029257463
0.8569850026127477
0.8322355309360213
0.8100005816260725
0.7882906251892527
0.9989829418476383
0.9669873497591808
0.9359224666163246
0.906049928158833
0.8772324881800608
0.8497674823338374
0.8234930607237717
0.7987435890470455
0.7753289469897313
0.7536189905529116
0.9704213734088044
0.9371148113016894
0.906049928158833
0.8748372490821306
0.8460198091033584
0.8172091773887475
0.7909347557786818
0.7648664334974743
0.74145179144016
0.7184910168770116
0.9429279653231024
0.9096214032159873
0.8773067793794729
0.8460941003027703
0.8160081537077017
0.7871975219930909
0.7596612062640886
0.733592883982881
0.7089566252777653
0.6859958507146167
0.9167643533302957
0.8821563973697638
0.8498417735332493
0.8172834685881595
0.7871975219930909
0.7570192015743051
0.729482885845303
0.7020569483357072
0.6774206896305914
0.653155669811551
0.8918088336215035
0.8572008776609716
0.8236602435723626
0.7911019386272726
0.7597580449951817
0.7295797245763959
0.7007775956122052
0.6733516581026093
0.6474753482512795
0.623210328432239
0.8683199950847613
0.8324514059842454
0.7989107718956363
0.7650336163460651
0.733689722713974
0.7021537870668001
0.6733516581026093
0.6445598129630982
0.6186835031117683
0.593087927196844
0.846186775570438
0.810318186469922
0.775608638157617
0.7417314826080459
0.709175174291796
0.677639238644622
0.6476028525420116
0.6188110074025004
0.5917107092300117
0.5661151333150873
0.8256585480473118
0.7886082300331023
0.7538986817207973
0.7187707080448973
0.6862143997286474
0.6533742188255817
0.6233378327229712
0.5932154314875762
0.5661151333150874
0.5392044277833217
1.0364034606719583
1.0057043131741383
0.9749317143750729
0.9463701459362389
0.9178477591299211
0.8916841471371143
0.8657015948600286
0.8422127563232864
0.8190790963149195
0.7985508687917934
1.0057043131741383
0.9737087210856809
0.9429361222866153
0.9130635838291238
0.884541197022806
0.8570761911765825
0.8310936388994967
0.8063441672227705
0.7832105072144038
0.761500550777584
0.9749869111567776
0.9429913190683201
0.9108422604231432
0.8809697219656518
0.8510528297373398
0.8235878238911163
0.7962207665744533
0.7714712948977269
0.7470000210282396
0.7252900645914199
0.9464253427179437
0.9131187806108285
0.8809697219656518
0.8497570428889494
0.8198401506606373
0.7910295189460265
0.7636624616293635
0.7375941393481558
0.7131228654786683
0.6901620909155197
0.9179724456143101
0.8846658835071951
0.8511252494185859
0.8199125703418835
0.7885686767097926
0.7597580449951816
0.7309559160309909
0.7048875937497833
0.6790112838984533
0.6560505093353047
0.8918088336215035
0.8572008776609716
0.8236602435723626
0.7911019386272726
0.7597580449951817
0.7295797245763959
0.7007775956122051
0.6733516581026093
0.6474753482512795
0.6232103284322391
0.8659114941951057
0.8313035382345739
0.7963853814682536
0.7638270765231636
0.7310525891347113
0.7008742687159255
0.6706137052188625
0.6431877677092668
0.6158628789350782
0.5915978591160378
0.8424226556583635
0.8065540665578477
0.7716359097915272
0.7377587542419559
0.7049842668535036
0.6734483312063297
0.6431877677092668
0.6143959225697556
0.587071033795567
0.5614754578806427
0.8193904321161383
0.7835218430156224
0.7472782089249235
0.7134010533753523
0.6792322005439144
0.6476962648967405
0.615994057182049
0.5872022120425379
0.5584236570874405
0.5328280811725161
0.798862204593012
0.7618118865788027
0.7255682524881037
0.6904402788122037
0.6562714259807658
0.6234312450777001
0.5917290373630086
0.5616066361276137
0.5328280811725163
0.5059173756407505
1.0155313435558442
0.9839627619017952
0.9531901631027295
0.9237509511564653
0.8952285643501475
0.8681953086003722
0.8422127563232864
0.8178830833167143
0.7947494233083475
0.7734344479006234
0.9839627619017952
0.9509791327424978
0.9202065339434322
0.8893253723236033
0.8608029855172855
0.8323267194998563
0.8063441672227705
0.7806050747291633
0.7574714147207965
0.7348243352687966
0.9532453598844343
0.9202617307251371
0.8881126720799604
0.8572315104601314
0.8273146182318193
0.79883835221439
0.7714712948977269
0.7457322024041197
0.7212609285346322
0.6986138490826325
0.9238061479381702
0.889380569105308
0.8572315104601312
0.8248627318497307
0.7949458396214186
0.7649611966648189
0.7375941393481558
0.7103615480460006
0.6858902741765133
0.6618120790669306
0.8953532508345368
0.8609276720016745
0.8273870379130656
0.7950182593026649
0.7636743656705738
0.733689722713974
0.7048875937497834
0.6776550024476281
0.6517786925962983
0.6277004974867157
0.8683199950847613
0.8324514059842454
0.7989107718956363
0.7650336163460651
0.733689722713974
0.7021537870668001
0.6733516581026093
0.6445598129630982
0.6186835031117683
0.593087927196844
0.8424226556583634
0.8065540665578477
0.7716359097915272
0.7377587542419559
0.7049842668535036
0.6734483312063297
0.6431877677092668
0.6143959225697556
0.587071033795567
0.5614754578806427
0.8180929826517914
0.7808149740642405
0.74589681729792
0.710526162939801
0.6777516755513486
0.6446564860668185
0.6143959225697556
0.5840111648404188
0.5566862760662302
0.5295139238853722
0.7950607591095661
0.7577827505220153
0.7215391164313162
0.6861684620731971
0.6519996092417594
0.6189044197572293
0.5872022120425379
0.5568174543132012
0.5280388993581037
0.5008665471772458
0.7737457837018421
0.7351356710700153
0.6988920369793162
0.6620902669636146
0.6279214141321767
0.593308843842305
0.5616066361276135
0.5296451021323432
0.5008665471772457
0.47210458186222565
0.9952050737134498
0.9636364920594007
0.9319692420055192
0.902530030059255
0.873103664165066
0.8460704084152907
0.8191929416015904
0.7948632685950183
0.7708676731367626
0.7495526977290385
0.9636364920594008
0.9306528629001034
0.8989856128462219
0.8681044512263929
0.838678085332204
0.8102018193147749
0.7833243525010747
0.7575852600074673
0.7335896645492116
0.7109425850972118
0.932020352241257
0.8990367230819597
0.8658630854104896
0.8349819237906606
0.8040165924431383
0.775540326425709
0.747121361369349
0.7213822688757418
0.6958837232254473
0.6732366437734475
0.9025811402949928
0.8681555614621308
0.8349819237906608
0.8026131451802601
0.7716478138327375
0.7416631708761379
0.7132442058197779
0.6860116145176228
0.6605130688673283
0.6364348737577457
0.8732200313202134
0.8387944524873512
0.8040849041750463
0.7717161255646456
0.7391598172483957
0.709175174291796
0.6791387881891856
0.6519061968870303
0.6248058987145416
0.6007277036049591
0.846186775570438
0.810318186469922
0.775608638157617
0.7417314826080459
0.709175174291796
0.677639238644622
0.6476028525420116
0.6188110074025004
0.5917107092300117
0.5661151333150873
0.8193904321161382
0.7835218430156224
0.7472782089249235
0.7134010533753523
0.6792322005439144
0.6476962648967405
0.615994057182049
0.5872022120425379
0.5584236570874405
0.5328280811725161
0.7950607591095662
0.7577827505220153
0.7215391164313163
0.6861684620731971
0.6519996092417594
0.6189044197572293
0.5872022120425379
0.5568174543132012
0.5280388993581037
0.5008665471772458
0.7711629921994219
0.7338849836118709
0.6961515171414041
0.6607808627832851
0.6250221457853129
0.5919269563007828
0.5585544804119866
0.5281697226826498
0.49767714970295845
0.47050479752210045
0.7498480167916978
0.711237904159871
0.6735044376894042
0.6367026676737024
0.6009439506757303
0.5663313803858585
0.5329589044970623
0.5009973705017918
0.47050479752210045
0.4417428322070804
0.9770904989265891
0.9447255036469553
0.9130582535930736
0.8828096031160834
0.8533832372218946
0.8255421808921644
0.7986647140784641
0.7735482931872943
0.7495526977290385
0.727496256402357
0.9447255036469552
0.9108302154854562
0.8791629654315747
0.8473434893929722
0.8179171234987834
0.788491862877955
0.7616143960642549
0.7349381805554676
0.7109425850972118
0.6873999778195424
0.9131093638288115
0.8792140756673125
0.8460404379958424
0.81422096195724
0.7832556306097176
0.7538303699888893
0.7254114049325294
0.6987351894237419
0.6732366437734475
0.6496940364957782
0.8828607133518213
0.8473945996287101
0.8142209619572401
0.7807665652796243
0.7498012339321017
0.7187023963129892
0.6902834312566293
0.6619334194080402
0.6364348737577458
0.6112717919843638
0.8534996043770418
0.8180334906539306
0.7833239423416256
0.7498695456640099
0.71731323734776
0.6862143997286474
0.6561780136260369
0.6278280017774478
0.6007277036049591
0.5755646218315772
0.8256585480473118
0.7886082300331023
0.7538986817207973
0.7187707080448973
0.6862143997286474
0.6533742188255817
0.6233378327229712
0.5932154314875762
0.5661151333150874
0.5392044277833217
0.798862204593012
0.7618118865788027
0.7255682524881037
0.6904402788122037
0.6562714259807658
0.6234312450777001
0.5917290373630086
0.5616066361276137
0.5328280811725163
0.5059173756407505
0.7737457837018421
0.7351356710700152
0.6988920369793162
0.6620902669636146
0.6279214141321767
0.593308843842305
0.5616066361276135
0.5296451021323432
0.5008665471772457
0.47210458186222565
0.7498480167916978
0.711237904159871
0.6735044376894042
0.6367026676737024
0.6009439506757303
0.5663313803858585
0.5329589044970623
0.5009973705017918
0.47050479752210045
0.4417428322070804
0.7277915754650163
0.6876952968822017
0.6499618304117348
0.6115395859003205
0.5757808689023484
0.5394206748540928
0.5060481989652966
0.47223540518677176
0.4417428322070804
0.4110746093245145
0.9597092235506381
0.9273442282710043
0.8948697834452126
0.8646211329682224
0.834373441711437
0.806532385381707
0.7788358857647482
0.7537194648735782
0.7289291597371431
0.7068727184104616
0.9273442282710043
0.8934489401095054
0.8609744952837135
0.8291550192451113
0.7989073279883259
0.7694820673674976
0.7417855677505388
0.7151093522417514
0.6903190471053163
0.666776439827647
0.8949150596247682
0.8610197714632692
0.8269142753302378
0.7950947992916353
0.7631677304699832
0.7337424698491549
0.7043497793847748
0.6776735638759874
0.6512150833038644
0.627672476026195
0.864666409147778
0.8292002954246669
0.7950947992916354
0.7616404026140196
0.7297133337923675
0.6986144961732549
0.6692218057088748
0.6408717938602857
0.6144133132881625
0.5892502315147807
0.8344772889701367
0.7990111752470255
0.7632293117814537
0.729774915103838
0.6960947642444311
0.6649959266253185
0.633802459711793
0.605452447863204
0.5771908412037525
0.5520277594303706
0.8066362326404065
0.7695859146261972
0.7338040511606254
0.6986760774847254
0.6649959266253185