# vtk DataFile Version 4.1
Header:
ASCII

DATASET UNSTRUCTURED_GRID
POINTS 175 double
0 0 0
1 0 0
2 0 0
3 0 0
4 0 0
5 0 0
6 0 0
0 1 0
1 1 0
2 1 0
3 1 0
4 1 0
5 1 0
6 1 0
0 2 0
1 2 0
2 2 0
3 2 0
4 2 0
5 2 0
6 2 0
0 3 0
1 3 0
2 3 0
3 3 0
4 3 0
5 3 0
6 3 0
0 4 0
1 4 0
2 4 0
3 4 0
4 4 0
5 4 0
6 4 0
0 0 1
1 0 1
2 0 1
3 0 1
4 0 1
5 0 1
6 0 1
0 1 1
1 1 1
2 1 1
3 1 1
4 1 1
5 1 1
6 1 1
0 2 1
1 2 1
2 2 1
3 2 1
4 2 1
5 2 1
6 2 1
0 3 1
1 3 1
2 3 1
3 3 1
4 3 1
5 3 1
6 3 1
0 4 1
1 4 1
2 4 1
3 4 1
4 4 1
5 4 1
6 4 1
0 0 2
1 0 2
2 0 2
3 0 2
4 0 2
5 0 2
6 0 2
0 1 2
1 1 2
2 1 2
3 1 2
4 1 2
5 1 2
6 1 2
0 2 2
1 2 2
2 2 2
3 2 2
4 2 2
5 2 2
6 2 2
0 3 2
1 3 2
2 3 2
3 3 2
4 3 2
5 3 2
6 3 2
0 4 2
1 4 2
2 4 2
3 4 2
4 4 2
5 4 2
6 4 2
0 0 3
1 0 3
2 0 3
3 0 3
4 0 3
5 0 3
6 0 3
0 1 3
1 1 3
2 1 3
3 1 3
4 1 3
5 1 3
6 1 3
0 2 3
1 2 3
2 2 3
3 2 3
4 2 3
5 2 3
6 2 3
0 3 3
1 3 3
2 3 3
3 3 3
4 3 3
5 3 3
6 3 3
0 4 3
1 4 3
2 4 3
3 4 3
4 4 3
5 4 3
6 4 3
0 0 4
1 0 4
2 0 4
3 0 4
4 0 4
5 0 4
6 0 4
0 1 4
1 1 4
2 1 4
3 1 4
4 1 4
5 1 4
6 1 4
0 2 4
1 2 4
2 2 4
3 2 4
4 2 4
5 2 4
6 2 4
0 3 4
1 3 4
2 3 4
3 3 4
4 3 4
5 3 4
6 3 4
0 4 4
1 4 4
2 4 4
3 4 4
4 4 4
5 4 4
6 4 4

CELLS 96 864
8 0 1 8 7 35 36 43 42
8 1 2 9 8 36 37 44 43
8 2 3 10 9 37 38 45 44
8 3 4 11 10 38 39 46 45
8 4 5 12 11 39 40 47 46
8 5 6 13 12 40 41 48 47
8 7 8 15 14 42 43 50 49
8 8 9 16 15 43 44 51 50
8 9 10 17 16 44 45 52 51
8 10 11 18 17 45 46 53 52
8 11 12 19 18 46 47 54 53
8 12 13 20 19 47 48 55 54
8 14 15 22 21 49 50 57 56
8 15 16 23 22 50 51 58 57
8 16 17 24 23 51 52 59 58
8 17 18 25 24 52 53 60 59
8 18 19 26 25 53 54 61 60
8 19 20 27 26 54 55 62 61
8 21 22 29 28 56 57 64 63
8 22 23 30 29 57 58 65 64
8 23 24 31 30 58 59 66 65
8 24 25 32 31 59 60 67 66
8 25 26 33 32 60 61 68 67
8 26 27 34 33 61 62 69 68
8 35 36 43 42 70 71 78 77
8 36 37 44 43 71 72 79 78
8 37 38 45 44 72 73 80 79
8 38 39 46 45 73 74 81 80
8 39 40 47 46 74 75 82 81
8 40 41 48 47 75 76 83 82
8 42 43 50 49 77 78 85 84
8 43 44 51 50 78 79 86 85
8 44 45 52 51 79 80 87 86
8 45 46 53 52 80 81 88 87
8 46 47 54 53 81 82 89 88
8 47 48 55 54 82 83 90 89
8 49 50 57 56 84 85 92 91
8 50 51 58 57 85 86 93 92
8 51 52 59 58 86 87 94 93
8 52 53 60 59 87 88 95 94
8 53 54 61 60 88 89 96 95
8 54 55 62 61 89 90 97 96
8 56 57 64 63 91 92 99 98
8 57 58 65 64 92 93 100 99
8 58 59 66 65 93 94 101 100
8 59 60 67 66 94 95 102 101
8 60 61 68 67 95 96 103 102
8 61 62 69 68 96 97 104 103
8 70 71 78 77 105 106 113 112
8 71 72 79 78 106 107 114 113
8 72 73 80 79 107 108 115 114
8 73 74 81 80 108 109 116 115
8 74 75 82 81 109 110 117 116
8 75 76 83 82 110 111 118 117
8 77 78 85 84 112 113 120 119
8 78 79 86 85 113 114 121 120
8 79 80 87 86 114 115 122 121
8 80 81 88 87 115 116 123 122
8 81 82 89 88 116 117 124 123
8 82 83 90 89 117 118 125 124
8 84 85 92 91 119 120 127 126
8 85 86 93 92 120 121 128 127
8 86 87 94 93 121 122 129 128
8 87 88 95 94 122 123 130 129
8 88 89 96 95 123 124 131 130
8 89 90 97 96 124 125 132 131
8 91 92 99 98 126 127 134 133
8 92 93 100 99 127 128 135 134
8 93 94 101 100 128 129 136 135
8 94 95 102 101 129 130 137 136
8 95 96 103 102 130 131 138 137
8 96 97 104 103 131 132 139 138
8 105 106 113 112 140 141 148 147
8 106 107 114 113 141 142 149 148
8 107 108 115 114 142 143 150 149
8 108 109 116 115 143 144 151 150
8 109 110 117 116 144 145 152 151
8 110 111 118 117 145 146 153 152
8 112 113 120 119 147 148 155 154
8 113 114 121 120 148 149 156 155
8 114 115 122 121 149 150 157 156
8 115 116 123 122 150 151 158 157
8 116 117 124 123 151 152 159 158
8 117 118 125 124 152 153 160 159
8 119 120 127 126 154 155 162 161
8 120 121 128 127 155 156 163 162
8 121 122 129 128 156 157 164 163
8 122 123 130 129 157 158 165 164
8 123 124 131 130 158 159 166 165
8 124 125 132 131 159 160 167 166
8 126 127 134 133 161 162 169 168
8 127 128 135 134 162 163 170 169
8 128 129 136 135 163 164 171 170
8 129 130 137 136 164 165 172 171
8 130 131 138 137 165 166 173 172
8 131 132 139 138 166 167 174 173

CELL_TYPES 96
12
12
12
12
12
12
12
12
12
12
12
12
12
12
12
12
12
12
12
12
12
12
12
12
12
12
12
12
12
12
12
12
12
12
12
12
12
12
12
12
12
12
12
12
12
12
12
12
12
12
12
12
12
12
12
12
12
12
12
12
12
12
12
12
12
12
12
12
12
12
12
12
12
12
12
12
12
12
12
12
12
12
12
12
12
12
12
12
12
12
12
12
12
12
12
12


POINT_DATA 175
SCALARS level_set double 1
LOOKUP_TABLE default
3.1231056256176606
2.4641016151377544
2
1.8284271247461903
2
2.4641016151377544
3.1231056256176606
2.7416573867739413
2
1.4494897427831779
1.2360679774997898
1.4494897427831779
2
2.7416573867739413
2.605551275463989
1.8284271247461903
1.2360679774997898
1
1.2360679774997898
1.8284271247461903
2.605551275463989
2.7416573867739413
2
1.4494897427831779
1.2360679774997898
1.4494897427831779
2
2.7416573867739413
3.1231056256176606
2.4641016151377544
2
1.8284271247461903
2
2.4641016151377544
3.1231056256176606
2.7416573867739413
2
1.4494897427831779
1.2360679774997898
1.4494897427831779
2
2.7416573867739413
2.3166247903554
1.4494897427831779
0.7320508075688772
0.41421356237309515
0.7320508075688772
1.4494897427831779
2.3166247903554
2.1622776601683795
1.2360679774997898
0.41421356237309515
0
0.41421356237309515
1.2360679774997898
2.1622776601683795
2.3166247903554
1.4494897427831779
0.7320508075688772
0.41421356237309515
0.7320508075688772
1.4494897427831779
2.3166247903554
2.7416573867739413
2
1.4494897427831779
1.2360679774997898
1.4494897427831779
2
2.7416573867739413
2.605551275463989
1.8284271247461903
1.2360679774997898
1
1.2360679774997898
1.8284271247461903
2.605551275463989
2.1622776601683795
1.2360679774997898
0.41421356237309515
0
0.41421356237309515
1.2360679774997898
2.1622776601683795
2
1
0
-1
0
1
2
2.1622776601683795
1.2360679774997898
0.41421356237309515
0
0.41421356237309515
1.2360679774997898
2.1622776601683795
2.605551275463989
1.8284271247461903
1.2360679774997898
1
1.2360679774997898
1.8284271247461903
2.605551275463989
2.7416573867739413
2
1.4494897427831779
1.2360679774997898
1.4494897427831779
2
2.7416573867739413
2.3166247903554
1.4494897427831779
0.7320508075688772
0.41421356237309515
0.7320508075688772
1.4494897427831779
2.3166247903554
2.1622776601683795
1.2360679774997898
0.41421356237309515
0
0.41421356237309515
1.2360679774997898
2.1622776601683795
2.3166247903554
1.4494897427831779
0.7320508075688772
0.41421356237309515
0.7320508075688772
1.4494897427831779
2.3166247903554
2.7416573867739413
2
1.4494897427831779
1.2360679774997898
1.4494897427831779
2
2.7416573867739413
3.1231056256176606
2.4641016151377544
2
1.8284271247461903
2
2.4641016151377544
3.1231056256176606
2.7416573867739413
2
1.4494897427831779
1.2360679774997898
1.4494897427831779
2
2.7416573867739413
2.605551275463989
1.8284271247461903
1.2360679774997898
1
1.2360679774997898
1.8284271247461903
2.605551275463989
2.7416573867739413
2
1.4494897427831779
1.2360679774997898
1.4494897427831779
2
2.7416573867739413
3.1231056256176606
2.4641016151377544
2
1.8284271247461903
2
2.4641016151377544
3.1231056256176606

