# vtk DataFile Version 4.1
Header:
ASCII

DATASET UNSTRUCTURED_GRID
POINTS 1053 double
0 0 0
0.5 0 0
1 0 0
1.5 0 0
2 0 0
2.5 0 0
3 0 0
3.5 0 0
4 0 0
4.5 0 0
5 0 0
5.5 0 0
6 0 0
0 0.5 0
0.5 0.5 0
1 0.5 0
1.5 0.5 0
2 0.5 0
2.5 0.5 0
3 0.5 0
3.5 0.5 0
4 0.5 0
4.5 0.5 0
5 0.5 0
5.5 0.5 0
6 0.5 0
0 1 0
0.5 1 0
1 1 0
1.5 1 0
2 1 0
2.5 1 0
3 1 0
3.5 1 0
4 1 0
4.5 1 0
5 1 0
5.5 1 0
6 1 0
0 1.5 0
0.5 1.5 0
1 1.5 0
1.5 1.5 0
2 1.5 0
2.5 1.5 0
3 1.5 0
3.5 1.5 0
4 1.5 0
4.5 1.5 0
5 1.5 0
5.5 1.5 0
6 1.5 0
0 2 0
0.5 2 0
1 2 0
1.5 2 0
2 2 0
2.5 2 0
3 2 0
3.5 2 0
4 2 0
4.5 2 0
5 2 0
5.5 2 0
6 2 0
0 2.5 0
0.5 2.5 0
1 2.5 0
1.5 2.5 0
2 2.5 0
2.5 2.5 0
3 2.5 0
3.5 2.5 0
4 2.5 0
4.5 2.5 0
5 2.5 0
5.5 2.5 0
6 2.5 0
0 3 0
0.5 3 0
1 3 0
1.5 3 0
2 3 0
2.5 3 0
3 3 0
3.5 3 0
4 3 0
4.5 3 0
5 3 0
5.5 3 0
6 3 0
0 3.5 0
0.5 3.5 0
1 3.5 0
1.5 3.5 0
2 3.5 0
2.5 3.5 0
3 3.5 0
3.5 3.5 0
4 3.5 0
4.5 3.5 0
5 3.5 0
5.5 3.5 0
6 3.5 0
0 4 0
0.5 4 0
1 4 0
1.5 4 0
2 4 0
2.5 4 0
3 4 0
3.5 4 0
4 4 0
4.5 4 0
5 4 0
5.5 4 0
6 4 0
0 0 0.5
0.5 0 0.5
1 0 0.5
1.5 0 0.5
2 0 0.5
2.5 0 0.5
3 0 0.5
3.5 0 0.5
4 0 0.5
4.5 0 0.5
5 0 0.5
5.5 0 0.5
6 0 0.5
0 0.5 0.5
0.5 0.5 0.5
1 0.5 0.5
1.5 0.5 0.5
2 0.5 0.5
2.5 0.5 0.5
3 0.5 0.5
3.5 0.5 0.5
4 0.5 0.5
4.5 0.5 0.5
5 0.5 0.5
5.5 0.5 0.5
6 0.5 0.5
0 1 0.5
0.5 1 0.5
1 1 0.5
1.5 1 0.5
2 1 0.5
2.5 1 0.5
3 1 0.5
3.5 1 0.5
4 1 0.5
4.5 1 0.5
5 1 0.5
5.5 1 0.5
6 1 0.5
0 1.5 0.5
0.5 1.5 0.5
1 1.5 0.5
1.5 1.5 0.5
2 1.5 0.5
2.5 1.5 0.5
3 1.5 0.5
3.5 1.5 0.5
4 1.5 0.5
4.5 1.5 0.5
5 1.5 0.5
5.5 1.5 0.5
6 1.5 0.5
0 2 0.5
0.5 2 0.5
1 2 0.5
1.5 2 0.5
2 2 0.5
2.5 2 0.5
3 2 0.5
3.5 2 0.5
4 2 0.5
4.5 2 0.5
5 2 0.5
5.5 2 0.5
6 2 0.5
0 2.5 0.5
0.5 2.5 0.5
1 2.5 0.5
1.5 2.5 0.5
2 2.5 0.5
2.5 2.5 0.5
3 2.5 0.5
3.5 2.5 0.5
4 2.5 0.5
4.5 2.5 0.5
5 2.5 0.5
5.5 2.5 0.5
6 2.5 0.5
0 3 0.5
0.5 3 0.5
1 3 0.5
1.5 3 0.5
2 3 0.5
2.5 3 0.5
3 3 0.5
3.5 3 0.5
4 3 0.5
4.5 3 0.5
5 3 0.5
5.5 3 0.5
6 3 0.5
0 3.5 0.5
0.5 3.5 0.5
1 3.5 0.5
1.5 3.5 0.5
2 3.5 0.5
2.5 3.5 0.5
3 3.5 0.5
3.5 3.5 0.5
4 3.5 0.5
4.5 3.5 0.5
5 3.5 0.5
5.5 3.5 0.5
6 3.5 0.5
0 4 0.5
0.5 4 0.5
1 4 0.5
1.5 4 0.5
2 4 0.5
2.5 4 0.5
3 4 0.5
3.5 4 0.5
4 4 0.5
4.5 4 0.5
5 4 0.5
5.5 4 0.5
6 4 0.5
0 0 1
0.5 0 1
1 0 1
1.5 0 1
2 0 1
2.5 0 1
3 0 1
3.5 0 1
4 0 1
4.5 0 1
5 0 1
5.5 0 1
6 0 1
0 0.5 1
0.5 0.5 1
1 0.5 1
1.5 0.5 1
2 0.5 1
2.5 0.5 1
3 0.5 1
3.5 0.5 1
4 0.5 1
4.5 0.5 1
5 0.5 1
5.5 0.5 1
6 0.5 1
0 1 1
0.5 1 1
1 1 1
1.5 1 1
2 1 1
2.5 1 1
3 1 1
3.5 1 1
4 1 1
4.5 1 1
5 1 1
5.5 1 1
6 1 1
0 1.5 1
0.5 1.5 1
1 1.5 1
1.5 1.5 1
2 1.5 1
2.5 1.5 1
3 1.5 1
3.5 1.5 1
4 1.5 1
4.5 1.5 1
5 1.5 1
5.5 1.5 1
6 1.5 1
0 2 1
0.5 2 1
1 2 1
1.5 2 1
2 2 1
2.5 2 1
3 2 1
3.5 2 1
4 2 1
4.5 2 1
5 2 1
5.5 2 1
6 2 1
0 2.5 1
0.5 2.5 1
1 2.5 1
1.5 2.5 1
2 2.5 1
2.5 2.5 1
3 2.5 1
3.5 2.5 1
4 2.5 1
4.5 2.5 1
5 2.5 1
5.5 2.5 1
6 2.5 1
0 3 1
0.5 3 1
1 3 1
1.5 3 1
2 3 1
2.5 3 1
3 3 1
3.5 3 1
4 3 1
4.5 3 1
5 3 1
5.5 3 1
6 3 1
0 3.5 1
0.5 3.5 1
1 3.5 1
1.5 3.5 1
2 3.5 1
2.5 3.5 1
3 3.5 1
3.5 3.5 1
4 3.5 1
4.5 3.5 1
5 3.5 1
5.5 3.5 1
6 3.5 1
0 4 1
0.5 4 1
1 4 1
1.5 4 1
2 4 1
2.5 4 1
3 4 1
3.5 4 1
4 4 1
4.5 4 1
5 4 1
5.5 4 1
6 4 1
0 0 1.5
0.5 0 1.5
1 0 1.5
1.5 0 1.5
2 0 1.5
2.5 0 1.5
3 0 1.5
3.5 0 1.5
4 0 1.5
4.5 0 1.5
5 0 1.5
5.5 0 1.5
6 0 1.5
0 0.5 1.5
0.5 0.5 1.5
1 0.5 1.5
1.5 0.5 1.5
2 0.5 1.5
2.5 0.5 1.5
3 0.5 1.5
3.5 0.5 1.5
4 0.5 1.5
4.5 0.5 1.5
5 0.5 1.5
5.5 0.5 1.5
6 0.5 1.5
0 1 1.5
0.5 1 1.5
1 1 1.5
1.5 1 1.5
2 1 1.5
2.5 1 1.5
3 1 1.5
3.5 1 1.5
4 1 1.5
4.5 1 1.5
5 1 1.5
5.5 1 1.5
6 1 1.5
0 1.5 1.5
0.5 1.5 1.5
1 1.5 1.5
1.5 1.5 1.5
2 1.5 1.5
2.5 1.5 1.5
3 1.5 1.5
3.5 1.5 1.5
4 1.5 1.5
4.5 1.5 1.5
5 1.5 1.5
5.5 1.5 1.5
6 1.5 1.5
0 2 1.5
0.5 2 1.5
1 2 1.5
1.5 2 1.5
2 2 1.5
2.5 2 1.5
3 2 1.5
3.5 2 1.5
4 2 1.5
4.5 2 1.5
5 2 1.5
5.5 2 1.5
6 2 1.5
0 2.5 1.5
0.5 2.5 1.5
1 2.5 1.5
1.5 2.5 1.5
2 2.5 1.5
2.5 2.5 1.5
3 2.5 1.5
3.5 2.5 1.5
4 2.5 1.5
4.5 2.5 1.5
5 2.5 1.5
5.5 2.5 1.5
6 2.5 1.5
0 3 1.5
0.5 3 1.5
1 3 1.5
1.5 3 1.5
2 3 1.5
2.5 3 1.5
3 3 1.5
3.5 3 1.5
4 3 1.5
4.5 3 1.5
5 3 1.5
5.5 3 1.5
6 3 1.5
0 3.5 1.5
0.5 3.5 1.5
1 3.5 1.5
1.5 3.5 1.5
2 3.5 1.5
2.5 3.5 1.5
3 3.5 1.5
3.5 3.5 1.5
4 3.5 1.5
4.5 3.5 1.5
5 3.5 1.5
5.5 3.5 1.5
6 3.5 1.5
0 4 1.5
0.5 4 1.5
1 4 1.5
1.5 4 1.5
2 4 1.5
2.5 4 1.5
3 4 1.5
3.5 4 1.5
4 4 1.5
4.5 4 1.5
5 4 1.5
5.5 4 1.5
6 4 1.5
0 0 2
0.5 0 2
1 0 2
1.5 0 2
2 0 2
2.5 0 2
3 0 2
3.5 0 2
4 0 2
4.5 0 2
5 0 2
5.5 0 2
6 0 2
0 0.5 2
0.5 0.5 2
1 0.5 2
1.5 0.5 2
2 0.5 2
2.5 0.5 2
3 0.5 2
3.5 0.5 2
4 0.5 2
4.5 0.5 2
5 0.5 2
5.5 0.5 2
6 0.5 2
0 1 2
0.5 1 2
1 1 2
1.5 1 2
2 1 2
2.5 1 2
3 1 2
3.5 1 2
4 1 2
4.5 1 2
5 1 2
5.5 1 2
6 1 2
0 1.5 2
0.5 1.5 2
1 1.5 2
1.5 1.5 2
2 1.5 2
2.5 1.5 2
3 1.5 2
3.5 1.5 2
4 1.5 2
4.5 1.5 2
5 1.5 2
5.5 1.5 2
6 1.5 2
0 2 2
0.5 2 2
1 2 2
1.5 2 2
2 2 2
2.5 2 2
3 2 2
3.5 2 2
4 2 2
4.5 2 2
5 2 2
5.5 2 2
6 2 2
0 2.5 2
0.5 2.5 2
1 2.5 2
1.5 2.5 2
2 2.5 2
2.5 2.5 2
3 2.5 2
3.5 2.5 2
4 2.5 2
4.5 2.5 2
5 2.5 2
5.5 2.5 2
6 2.5 2
0 3 2
0.5 3 2
1 3 2
1.5 3 2
2 3 2
2.5 3 2
3 3 2
3.5 3 2
4 3 2
4.5 3 2
5 3 2
5.5 3 2
6 3 2
0 3.5 2
0.5 3.5 2
1 3.5 2
1.5 3.5 2
2 3.5 2
2.5 3.5 2
3 3.5 2
3.5 3.5 2
4 3.5 2
4.5 3.5 2
5 3.5 2
5.5 3.5 2
6 3.5 2
0 4 2
0.5 4 2
1 4 2
1.5 4 2
2 4 2
2.5 4 2
3 4 2
3.5 4 2
4 4 2
4.5 4 2
5 4 2
5.5 4 2
6 4 2
0 0 2.5
0.5 0 2.5
1 0 2.5
1.5 0 2.5
2 0 2.5
2.5 0 2.5
3 0 2.5
3.5 0 2.5
4 0 2.5
4.5 0 2.5
5 0 2.5
5.5 0 2.5
6 0 2.5
0 0.5 2.5
0.5 0.5 2.5
1 0.5 2.5
1.5 0.5 2.5
2 0.5 2.5
2.5 0.5 2.5
3 0.5 2.5
3.5 0.5 2.5
4 0.5 2.5
4.5 0.5 2.5
5 0.5 2.5
5.5 0.5 2.5
6 0.5 2.5
0 1 2.5
0.5 1 2.5
1 1 2.5
1.5 1 2.5
2 1 2.5
2.5 1 2.5
3 1 2.5
3.5 1 2.5
4 1 2.5
4.5 1 2.5
5 1 2.5
5.5 1 2.5
6 1 2.5
0 1.5 2.5
0.5 1.5 2.5
1 1.5 2.5
1.5 1.5 2.5
2 1.5 2.5
2.5 1.5 2.5
3 1.5 2.5
3.5 1.5 2.5
4 1.5 2.5
4.5 1.5 2.5
5 1.5 2.5
5.5 1.5 2.5
6 1.5 2.5
0 2 2.5
0.5 2 2.5
1 2 2.5
1.5 2 2.5
2 2 2.5
2.5 2 2.5
3 2 2.5
3.5 2 2.5
4 2 2.5
4.5 2 2.5
5 2 2.5
5.5 2 2.5
6 2 2.5
0 2.5 2.5
0.5 2.5 2.5
1 2.5 2.5
1.5 2.5 2.5
2 2.5 2.5
2.5 2.5 2.5
3 2.5 2.5
3.5 2.5 2.5
4 2.5 2.5
4.5 2.5 2.5
5 2.5 2.5
5.5 2.5 2.5
6 2.5 2.5
0 3 2.5
0.5 3 2.5
1 3 2.5
1.5 3 2.5
2 3 2.5
2.5 3 2.5
3 3 2.5
3.5 3 2.5
4 3 2.5
4.5 3 2.5
5 3 2.5
5.5 3 2.5
6 3 2.5
0 3.5 2.5
0.5 3.5 2.5
1 3.5 2.5
1.5 3.5 2.5
2 3.5 2.5
2.5 3.5 2.5
3 3.5 2.5
3.5 3.5 2.5
4 3.5 2.5
4.5 3.5 2.5
5 3.5 2.5
5.5 3.5 2.5
6 3.5 2.5
0 4 2.5
0.5 4 2.5
1 4 2.5
1.5 4 2.5
2 4 2.5
2.5 4 2.5
3 4 2.5
3.5 4 2.5
4 4 2.5
4.5 4 2.5
5 4 2.5
5.5 4 2.5
6 4 2.5
0 0 3
0.5 0 3
1 0 3
1.5 0 3
2 0 3
2.5 0 3
3 0 3
3.5 0 3
4 0 3
4.5 0 3
5 0 3
5.5 0 3
6 0 3
0 0.5 3
0.5 0.5 3
1 0.5 3
1.5 0.5 3
2 0.5 3
2.5 0.5 3
3 0.5 3
3.5 0.5 3
4 0.5 3
4.5 0.5 3
5 0.5 3
5.5 0.5 3
6 0.5 3
0 1 3
0.5 1 3
1 1 3
1.5 1 3
2 1 3
2.5 1 3
3 1 3
3.5 1 3
4 1 3
4.5 1 3
5 1 3
5.5 1 3
6 1 3
0 1.5 3
0.5 1.5 3
1 1.5 3
1.5 1.5 3
2 1.5 3
2.5 1.5 3
3 1.5 3
3.5 1.5 3
4 1.5 3
4.5 1.5 3
5 1.5 3
5.5 1.5 3
6 1.5 3
0 2 3
0.5 2 3
1 2 3
1.5 2 3
2 2 3
2.5 2 3
3 2 3
3.5 2 3
4 2 3
4.5 2 3
5 2 3
5.5 2 3
6 2 3
0 2.5 3
0.5 2.5 3
1 2.5 3
1.5 2.5 3
2 2.5 3
2.5 2.5 3
3 2.5 3
3.5 2.5 3
4 2.5 3
4.5 2.5 3
5 2.5 3
5.5 2.5 3
6 2.5 3
0 3 3
0.5 3 3
1 3 3
1.5 3 3
2 3 3
2.5 3 3
3 3 3
3.5 3 3
4 3 3
4.5 3 3
5 3 3
5.5 3 3
6 3 3
0 3.5 3
0.5 3.5 3
1 3.5 3
1.5 3.5 3
2 3.5 3
2.5 3.5 3
3 3.5 3
3.5 3.5 3
4 3.5 3
4.5 3.5 3
5 3.5 3
5.5 3.5 3
6 3.5 3
0 4 3
0.5 4 3
1 4 3
1.5 4 3
2 4 3
2.5 4 3
3 4 3
3.5 4 3
4 4 3
4.5 4 3
5 4 3
5.5 4 3
6 4 3
0 0 3.5
0.5 0 3.5
1 0 3.5
1.5 0 3.5
2 0 3.5
2.5 0 3.5
3 0 3.5
3.5 0 3.5
4 0 3.5
4.5 0 3.5
5 0 3.5
5.5 0 3.5
6 0 3.5
0 0.5 3.5
0.5 0.5 3.5
1 0.5 3.5
1.5 0.5 3.5
2 0.5 3.5
2.5 0.5 3.5
3 0.5 3.5
3.5 0.5 3.5
4 0.5 3.5
4.5 0.5 3.5
5 0.5 3.5
5.5 0.5 3.5
6 0.5 3.5
0 1 3.5
0.5 1 3.5
1 1 3.5
1.5 1 3.5
2 1 3.5
2.5 1 3.5
3 1 3.5
3.5 1 3.5
4 1 3.5
4.5 1 3.5
5 1 3.5
5.5 1 3.5
6 1 3.5
0 1.5 3.5
0.5 1.5 3.5
1 1.5 3.5
1.5 1.5 3.5
2 1.5 3.5
2.5 1.5 3.5
3 1.5 3.5
3.5 1.5 3.5
4 1.5 3.5
4.5 1.5 3.5
5 1.5 3.5
5.5 1.5 3.5
6 1.5 3.5
0 2 3.5
0.5 2 3.5
1 2 3.5
1.5 2 3.5
2 2 3.5
2.5 2 3.5
3 2 3.5
3.5 2 3.5
4 2 3.5
4.5 2 3.5
5 2 3.5
5.5 2 3.5
6 2 3.5
0 2.5 3.5
0.5 2.5 3.5
1 2.5 3.5
1.5 2.5 3.5
2 2.5 3.5
2.5 2.5 3.5
3 2.5 3.5
3.5 2.5 3.5
4 2.5 3.5
4.5 2.5 3.5
5 2.5 3.5
5.5 2.5 3.5
6 2.5 3.5
0 3 3.5
0.5 3 3.5
1 3 3.5
1.5 3 3.5
2 3 3.5
2.5 3 3.5
3 3 3.5
3.5 3 3.5
4 3 3.5
4.5 3 3.5
5 3 3.5
5.5 3 3.5
6 3 3.5
0 3.5 3.5
0.5 3.5 3.5
1 3.5 3.5
1.5 3.5 3.5
2 3.5 3.5
2.5 3.5 3.5
3 3.5 3.5
3.5 3.5 3.5
4 3.5 3.5
4.5 3.5 3.5
5 3.5 3.5
5.5 3.5 3.5
6 3.5 3.5
0 4 3.5
0.5 4 3.5
1 4 3.5
1.5 4 3.5
2 4 3.5
2.5 4 3.5
3 4 3.5
3.5 4 3.5
4 4 3.5
4.5 4 3.5
5 4 3.5
5.5 4 3.5
6 4 3.5
0 0 4
0.5 0 4
1 0 4
1.5 0 4
2 0 4
2.5 0 4
3 0 4
3.5 0 4
4 0 4
4.5 0 4
5 0 4
5.5 0 4
6 0 4
0 0.5 4
0.5 0.5 4
1 0.5 4
1.5 0.5 4
2 0.5 4
2.5 0.5 4
3 0.5 4
3.5 0.5 4
4 0.5 4
4.5 0.5 4
5 0.5 4
5.5 0.5 4
6 0.5 4
0 1 4
0.5 1 4
1 1 4
1.5 1 4
2 1 4
2.5 1 4
3 1 4
3.5 1 4
4 1 4
4.5 1 4
5 1 4
5.5 1 4
6 1 4
0 1.5 4
0.5 1.5 4
1 1.5 4
1.5 1.5 4
2 1.5 4
2.5 1.5 4
3 1.5 4
3.5 1.5 4
4 1.5 4
4.5 1.5 4
5 1.5 4
5.5 1.5 4
6 1.5 4
0 2 4
0.5 2 4
1 2 4
1.5 2 4
2 2 4
2.5 2 4
3 2 4
3.5 2 4
4 2 4
4.5 2 4
5 2 4
5.5 2 4
6 2 4
0 2.5 4
0.5 2.5 4
1 2.5 4
1.5 2.5 4
2 2.5 4
2.5 2.5 4
3 2.5 4
3.5 2.5 4
4 2.5 4
4.5 2.5 4
5 2.5 4
5.5 2.5 4
6 2.5 4
0 3 4
0.5 3 4
1 3 4
1.5 3 4
2 3 4
2.5 3 4
3 3 4
3.5 3 4
4 3 4
4.5 3 4
5 3 4
5.5 3 4
6 3 4
0 3.5 4
0.5 3.5 4
1 3.5 4
1.5 3.5 4
2 3.5 4
2.5 3.5 4
3 3.5 4
3.5 3.5 4
4 3.5 4
4.5 3.5 4
5 3.5 4
5.5 3.5 4
6 3.5 4
0 4 4
0.5 4 4
1 4 4
1.5 4 4
2 4 4
2.5 4 4
3 4 4
3.5 4 4
4 4 4
4.5 4 4
5 4 4
5.5 4 4
6 4 4

CELLS 2304 11520
4 14 0 2 131
4 14 2 28 131
4 14 28 26 131
4 14 26 0 131
4 118 0 234 131
4 118 234 236 131
4 118 236 2 131
4 118 2 0 131
4 130 0 26 131
4 130 26 260 131
4 130 260 234 131
4 130 234 0 131
4 132 262 28 131
4 132 28 2 131
4 132 2 236 131
4 132 236 262 131
4 144 262 260 131
4 144 260 26 131
4 144 26 28 131
4 144 28 262 131
4 248 262 236 131
4 248 236 234 131
4 248 234 260 131
4 248 260 262 131
4 16 2 4 133
4 16 4 30 133
4 16 30 28 133
4 16 28 2 133
4 120 2 236 133
4 120 236 238 133
4 120 238 4 133
4 120 4 2 133
4 132 2 28 133
4 132 28 262 133
4 132 262 236 133
4 132 236 2 133
4 134 264 30 133
4 134 30 4 133
4 134 4 238 133
4 134 238 264 133
4 146 264 262 133
4 146 262 28 133
4 146 28 30 133
4 146 30 264 133
4 250 264 238 133
[...]
POINT_DATA 1053
SCALARS level_set double 1
LOOKUP_TABLE default
3.1231056256176606
2.7936036203777075
2.4641016151377544
2.232050807568877
2
1.9142135623730951
1.8284271247461903
1.9142135623730951
2
2.232050807568877
2.4641016151377544
2.7936036203777075
3.1231056256176606
2.932381506195801
2.582216156882339
2.232050807568877
1.978397839480233
1.724744871391589
1.6284962112572896
1.53224755112299
1.6284962112572894
1.724744871391589
1.978397839480233
2.232050807568877
2.582216156882339
2.932381506195801
2.7416573867739413
2.3708286933869704
2
1.724744871391589
1.4494897427831779
1.3427788601414838
1.2360679774997898
1.3427788601414838
1.4494897427831779
1.724744871391589
2
2.3708286933869704
2.7416573867739413
2.6736043311189652
2.29390894674603
1.9142135623730951
1.6284962112572896
1.3427788601414838
1.2304064244456894
1.118033988749895
1.2304064244456894
1.3427788601414838
1.6284962112572896
1.9142135623730951
2.29390894674603
2.6736043311189652
2.605551275463989
2.2169892001050897
1.8284271247461903
1.53224755112299
1.2360679774997898
1.118033988749895
1
1.118033988749895
1.2360679774997898
1.53224755112299
1.8284271247461903
2.2169892001050897
2.605551275463989
2.6736043311189652
2.29390894674603
1.9142135623730951
1.6284962112572894
1.3427788601414838
1.2304064244456894
1.118033988749895
1.2304064244456894
1.3427788601414838
1.6284962112572896
1.9142135623730951
2.29390894674603
2.6736043311189652
2.7416573867739413
2.3708286933869704
2
1.724744871391589
1.4494897427831779
1.3427788601414838
1.2360679774997898
1.3427788601414838
1.4494897427831779
1.724744871391589
2
2.3708286933869704
2.7416573867739413
2.932381506195801
2.582216156882339
2.232050807568877
1.978397839480233
1.724744871391589
1.6284962112572896
1.53224755112299
1.6284962112572896
1.724744871391589
1.978397839480233
2.232050807568877
2.582216156882339
2.932381506195801
3.1231056256176606
2.7936036203777075
2.4641016151377544
2.232050807568877
2
1.9142135623730951
1.8284271247461903
1.9142135623730951
2
2.232050807568877
2.4641016151377544
2.7936036203777075
3.1231056256176606
2.932381506195801
2.582216156882339
2.232050807568877
1.978397839480233
1.724744871391589
1.6284962112572896
1.53224755112299
1.6284962112572894
1.724744871391589
1.978397839480233
2.232050807568877
2.582216156882339
2.932381506195801
2.7307612973802358
2.3545795684302346
1.978397839480233
1.6930777063820208
1.4077575732838081
1.2932258669067622
1.178694160529716
1.2932258669067622
1.4077575732838081
1.6930777063820206
1.978397839480233
2.3545795684302346
2.7307612973802358
2.5291410885646703
2.1269429799781294
1.724744871391589
1.4077575732838081
1.0907702751760275
0.9579555225562351
0.8251407699364425
0.957955522556235
1.0907702751760275
1.4077575732838083
1.724744871391589
2.1269429799781294
2.5291410885646703
2.4565277781904276
2.042511994723858
1.6284962112572896
1.2932258669067624
0.9579555225562351
0.8102629537622281
0.6625703849682212
0.810262953762228
0.9579555225562351
1.2932258669067624
1.6284962112572896
2.0425119947238586
2.4565277781904276
2.3839144678161843
1.9580810094695873
1.53224755112299
1.178694160529716
0.8251407699364425
0.6625703849682212
0.5
0.6625703849682212
0.8251407699364425
1.1786941605297163
1.53224755112299
1.9580810094695873
2.3839144678161843
2.4565277781904276
2.0425119947238586
1.6284962112572894
1.2932258669067622
0.957955522556235
0.810262953762228
0.6625703849682212
0.8102629537622281
0.957955522556235
1.293225866906762
1.6284962112572894
2.042511994723858
2.4565277781904276
2.5291410885646703
2.1269429799781294
1.724744871391589
1.4077575732838081
1.0907702751760275
0.9579555225562351
0.8251407699364425
0.957955522556235
1.0907702751760275
1.4077575732838083
1.724744871391589
2.1269429799781294
2.5291410885646703
2.7307612973802358
2.354579568430234
1.978397839480233
1.6930777063820206
1.4077575732838083
1.2932258669067622
1.1786941605297163
1.2932258669067624
1.4077575732838083
1.6930777063820206
1.978397839480233
2.354579568430234
2.7307612973802358
2.932381506195801
2.582216156882339
2.232050807568877
1.978397839480233
1.724744871391589
1.6284962112572896
1.53224755112299
1.6284962112572894
1.724744871391589
1.978397839480233
2.232050807568877
2.582216156882339
2.932381506195801
2.7416573867739413
2.3708286933869704
2
1.724744871391589
1.4494897427831779
1.3427788601414838
1.2360679774997898
1.3427788601414838
1.4494897427831779
1.724744871391589
2
2.3708286933869704
2.7416573867739413
2.5291410885646703
2.1269429799781294
1.724744871391589
1.4077575732838081
1.0907702751760275
0.9579555225562351
0.8251407699364425
0.957955522556235
1.0907702751760275
1.4077575732838083
1.724744871391589
2.1269429799781294
2.5291410885646703
2.3166247903554
1.8830572665692888
1.4494897427831779
1.0907702751760275
0.7320508075688772
0.5731321849709862
0.41421356237309515
0.5731321849709862
0.7320508075688772
1.0907702751760275
1.4494897427831779
1.8830572665692888
2.3166247903554
2.23945122526189
1.7911150427016866
1.3427788601414838
0.9579555225562351
0.5731321849709862
0.39011948307876687
0.20710678118654757
0.39011948307876687
0.5731321849709862
0.9579555225562351
1.3427788601414838
1.7911150427016866
2.23945122526189
2.1622776601683795
1.6991728188340847
1.2360679774997898
0.8251407699364425
0.41421356237309515
0.20710678118654757
0
0.20710678118654757
0.41421356237309515
0.8251407699364425
1.2360679774997898
1.6991728188340847
2.1622776601683795
2.23945122526189
1.7911150427016869
1.3427788601414838
0.957955522556235
0.5731321849709862
0.39011948307876687
0.20710678118654757
0.39011948307876687
0.5731321849709862
0.9579555225562351
1.3427788601414838
1.7911150427016866
2.23945122526189
2.3166247903554
1.8830572665692888
1.4494897427831779
1.0907702751760275
0.7320508075688772
0.5731321849709862
0.41421356237309515
0.5731321849709862
0.7320508075688772
1.0907702751760275
1.4494897427831779
1.8830572665692888
2.3166247903554
2.5291410885646703
2.12694297997813
1.724744871391589
1.4077575732838083
1.0907702751760275
0.9579555225562351
0.8251407699364425
0.9579555225562351
1.0907702751760275
1.4077575732838081
1.724744871391589
2.12694297997813
2.5291410885646703
2.7416573867739413
2.3708286933869704
2
1.724744871391589
1.4494897427831779
1.3427788601414838
1.2360679774997898
1.3427788601414838
1.4494897427831779
1.724744871391589
2
2.3708286933869704
2.7416573867739413
2.6736043311189652
2.29390894674603
1.9142135623730951
1.6284962112572896
1.3427788601414838
1.2304064244456894
1.118033988749895
1.2304064244456894
1.3427788601414838
1.6284962112572896
1.9142135623730951
2.29390894674603
2.6736043311189652
2.4565277781904276
2.042511994723858
1.6284962112572896
1.2932258669067622
0.9579555225562351
0.8102629537622281
0.6625703849682212
0.810262953762228
0.9579555225562351
1.2932258669067624
1.6284962112572896
2.042511994723858
2.4565277781904276
2.23945122526189
1.7911150427016866
1.3427788601414838
0.9579555225562351
0.5731321849709862
0.39011948307876687
0.20710678118654757
0.39011948307876687
0.5731321849709862
0.9579555225562351
1.3427788601414838
1.7911150427016866
2.23945122526189
2.16029502767304
1.6953507260593645
1.2304064244456894
0.8102629537622281
0.39011948307876687
0.12183643683602033
-0.1464466094067262
0.12183643683602033
0.39011948307876687
0.8102629537622281
1.2304064244456894
1.6953507260593645
2.16029502767304
2.08113883008419
1.5995864094170424
1.118033988749895
0.6625703849682212
0.20710678118654757
-0.1464466094067262
-0.5
-0.1464466094067262
0.20710678118654757
0.6625703849682212
1.118033988749895
1.5995864094170424
2.08113883008419
2.16029502767304
1.6953507260593648
1.2304064244456894
0.810262953762228
0.39011948307876687
0.12183643683602033
-0.1464466094067262
0.12183643683602033
0.39011948307876687
0.8102629537622281
1.2304064244456894
1.6953507260593645
2.16029502767304
2.23945122526189
1.7911150427016866
1.3427788601414838
0.9579555225562351
0.5731321849709862
0.39011948307876687
0.20710678118654757
0.39011948307876687
0.5731321849709862
0.9579555225562351
1.3427788601414838
1.7911150427016866
2.23945122526189
2.4565277781904276
2.0425119947238586
1.6284962112572896
1.2932258669067622
0.9579555225562351
0.8102629537622281
0.6625703849682212
0.8102629537622281
0.9579555225562351
1.2932258669067622
1.6284962112572896
2.0425119947238586
2.4565277781904276
2.6736043311189652
2.29390894674603
1.9142135623730951
1.6284962112572896
1.3427788601414838
1.2304064244456894
1.118033988749895
1.2304064244456894
1.3427788601414838
1.6284962112572896
1.9142135623730951
2.29390894674603
2.6736043311189652
2.605551275463989
2.2169892001050897
1.8284271247461903
1.53224755112299
1.2360679774997898
1.118033988749895
1
1.118033988749895
1.2360679774997898
1.53224755112299
1.8284271247461903
2.2169892001050897
2.605551275463989
2.3839144678161843
1.9580810094695873
1.53224755112299
1.178694160529716
0.8251407699364425
0.6625703849682212
0.5
0.6625703849682212
0.8251407699364425
1.1786941605297163
1.53224755112299
1.9580810094695873
2.3839144678161843
2.1622776601683795
1.6991728188340847
1.2360679774997898
0.8251407699364425
0.41421356237309515
0.20710678118654757
0
0.20710678118654757
0.41421356237309515
0.8251407699364425
1.2360679774997898
1.6991728188340847
2.1622776601683795
2.08113883008419
1.5995864094170424
1.118033988749895
0.6625703849682212
0.20710678118654757
-0.1464466094067262
-0.5
-0.1464466094067262
0.20710678118654757
0.6625703849682212
1.118033988749895
1.5995864094170424
2.08113883008419
2
1.5
1
0.5
0
-0.5
-1
-0.5
0
0.5
1
1.5
2
2.08113883008419
1.5995864094170424
1.118033988749895
0.6625703849682212
0.20710678118654757
-0.1464466094067262
-0.5
-0.1464466094067262
0.20710678118654757
0.6625703849682212
1.118033988749895
1.5995864094170424
2.08113883008419
2.1622776601683795
1.6991728188340847
1.2360679774997898
0.8251407699364425
0.41421356237309515
0.20710678118654757
0
0.20710678118654757
0.41421356237309515
0.8251407699364425
1.2360679774997898
1.6991728188340847
2.1622776601683795
2.3839144678161843
1.9580810094695873
1.53224755112299
1.1786941605297163
0.8251407699364425
0.6625703849682212
0.5
0.6625703849682212
0.8251407699364425
1.1786941605297163
1.53224755112299
1.9580810094695873
2.3839144678161843
2.605551275463989
2.2169892001050897
1.8284271247461903
1.53224755112299
1.2360679774997898
1.118033988749895
1
1.118033988749895
1.2360679774997898
1.53224755112299
1.8284271247461903
2.2169892001050897
2.605551275463989
2.6736043311189652
2.29390894674603
1.9142135623730951
1.6284962112572894
1.3427788601414838
1.2304064244456894
1.118033988749895
1.2304064244456894
1.3427788601414838
1.6284962112572896
1.9142135623730951
2.29390894674603
2.6736043311189652
2.4565277781904276
2.0425119947238586
1.6284962112572894
1.2932258669067622
0.957955522556235
0.810262953762228
0.6625703849682212
0.8102629537622281
0.957955522556235
1.293225866906762
1.6284962112572894
2.042511994723858
2.4565277781904276
2.23945122526189
1.7911150427016869
1.3427788601414838
0.957955522556235
0.5731321849709862
0.39011948307876687
0.20710678118654757
0.39011948307876687
0.5731321849709862
0.9579555225562351
1.3427788601414838
1.7911150427016866
2.23945122526189
2.16029502767304
1.6953507260593648
1.2304064244456894
0.810262953762228
0.39011948307876687
0.12183643683602033
-0.1464466094067262
0.12183643683602033
0.39011948307876687
0.810262953762228
1.2304064244456894
1.6953507260593648
2.16029502767304
2.08113883008419
1.5995864094170424
1.118033988749895
0.6625703849682212
0.20710678118654757
-0.1464466094067262
-0.5
-0.1464466094067262
0.20710678118654757
0.6625703849682212
1.118033988749895
1.5995864094170424
2.08113883008419
2.16029502767304
1.6953507260593645
1.2304064244456894
0.8102629537622281
0.39011948307876687
0.12183643683602033
-0.1464466094067262
0.12183643683602033
0.39011948307876687
0.810262953762228
1.2304064244456894
1.6953507260593648
2.16029502767304
2.23945122526189
1.7911150427016869
1.3427788601414838
0.957955522556235
0.5731321849709862
0.39011948307876687
0.20710678118654757
0.39011948307876687
0.5731321849709862
0.9579555225562351
1.3427788601414838
1.7911150427016866
2.23945122526189
2.4565277781904276
2.0425119947238586
1.6284962112572896
1.2932258669067624
0.9579555225562351
0.8102629537622281
0.6625703849682212
0.810262953762228
0.9579555225562351
1.2932258669067622
1.6284962112572896
2.0425119947238586
2.4565277781904276
2.6736043311189652
2.29390894674603
1.9142135623730951
1.6284962112572894
1.3427788601414838
1.2304064244456894
1.118033988749895
1.2304064244456894
1.3427788601414838
1.6284962112572896
1.9142135623730951
2.29390894674603
2.6736043311189652
2.7416573867739413
2.3708286933869704
2
1.724744871391589
1.4494897427831779
1.3427788601414838
1.2360679774997898
1.3427788601414838
1.4494897427831779
1.724744871391589
2
2.3708286933869704
2.7416573867739413
2.5291410885646703
2.1269429799781294
1.724744871391589
1.4077575732838081
1.0907702751760275
0.9579555225562351
0.8251407699364425
0.957955522556235
1.0907702751760275
1.4077575732838083
1.724744871391589
2.1269429799781294
2.5291410885646703
2.3166247903554
1.8830572665692888
1.4494897427831779
1.0907702751760275
0.7320508075688772
0.5731321849709862
0.41421356237309515
0.5731321849709862
0.7320508075688772
1.0907702751760275
1.4494897427831779
1.8830572665692888
2.3166247903554
2.23945122526189
1.7911150427016866
1.3427788601414838
0.9579555225562351
0.5731321849709862
0.39011948307876687
0.20710678118654757
0.39011948307876687
0.5731321849709862
0.9579555225562351
1.3427788601414838
1.7911150427016866
2.23945122526189
2.1622776601683795
1.6991728188340847
1.2360679774997898
0.8251407699364425
0.41421356237309515
0.20710678118654757
0
0.20710678118654757
0.41421356237309515
0.8251407699364425
1.2360679774997898
1.6991728188340847
2.1622776601683795
2.23945122526189
1.7911150427016869
1.3427788601414838
0.957955522556235
0.5731321849709862
0.39011948307876687
0.20710678118654757
0.39011948307876687
0.5731321849709862
0.9579555225562351
1.3427788601414838
1.7911150427016866
2.23945122526189
2.3166247903554
1.8830572665692888
1.4494897427831779
1.0907702751760275
0.7320508075688772
0.5731321849709862
0.41421356237309515
0.5731321849709862
0.7320508075688772
1.0907702751760275
1.4494897427831779
1.8830572665692888
2.3166247903554
2.5291410885646703
2.12694297997813
1.724744871391589
1.4077575732838083
1.0907702751760275
0.9579555225562351
0.8251407699364425
0.9579555225562351
1.0907702751760275
1.4077575732838081
1.724744871391589
2.12694297997813
2.5291410885646703
2.7416573867739413
2.3708286933869704
2
1.724744871391589
1.4494897427831779
1.3427788601414838
1.2360679774997898
1.3427788601414838
1.4494897427831779
1.724744871391589
2
2.3708286933869704
2.7416573867739413
2.932381506195801
2.582216156882339
2.232050807568877
1.978397839480233
1.724744871391589
1.6284962112572896
1.53224755112299
1.6284962112572896
1.724744871391589
1.978397839480233
2.232050807568877
2.582216156882339
2.932381506195801
2.7307612973802353
2.354579568430234
1.978397839480233
1.6930777063820206
1.4077575732838083
1.2932258669067624
1.1786941605297163
1.2932258669067624
1.4077575732838083
1.6930777063820206
1.978397839480233
2.354579568430234
2.7307612973802353
2.5291410885646703
2.12694297997813
1.724744871391589
1.4077575732838083
1.0907702751760275
0.9579555225562351
0.8251407699364425
0.9579555225562351
1.0907702751760275
1.4077575732838081
1.724744871391589
2.12694297997813
2.5291410885646703
2.4565277781904276
2.0425119947238586
1.6284962112572896
1.2932258669067622
0.9579555225562351
0.8102629537622281
0.6625703849682212
0.8102629537622281
0.9579555225562351
1.2932258669067622
1.6284962112572896
2.042511994723858
2.4565277781904276
2.3839144678161843
1.9580810094695873
1.53224755112299
1.1786941605297163
0.8251407699364425
0.6625703849682212
0.5
0.6625703849682212
0.8251407699364425
1.1786941605297163
1.53224755112299
1.9580810094695873
2.3839144678161843
2.4565277781904276
2.042511994723858
1.6284962112572896
1.2932258669067624
0.9579555225562351
0.8102629537622281
0.6625703849682212
0.8102629537622281
0.9579555225562351
1.2932258669067624
1.6284962112572896
2.0425119947238586
2.4565277781904276
2.5291410885646703
2.12694297997813
1.724744871391589
1.4077575732838083
1.0907702751760275
0.9579555225562351
0.8251407699364425
0.9579555225562351
1.0907702751760275
1.4077575732838081
1.724744871391589
2.12694297997813
2.5291410885646703
2.7307612973802353
2.354579568430234
1.978397839480233
1.6930777063820206
1.4077575732838081
1.2932258669067622
1.1786941605297163
1.2932258669067622
1.4077575732838081
1.6930777063820206
1.978397839480233
2.3545795684302346
2.7307612973802353
2.932381506195801
2.582216156882339
2.232050807568877
1.978397839480233
1.724744871391589
1.6284962112572896
1.53224755112299
1.6284962112572896
1.724744871391589
1.978397839480233
2.232050807568877
2.582216156882339
2.932381506195801
3.1231056256176606
2.7936036203777075
2.4641016151377544
2.232050807568877
2
1.9142135623730951
1.8284271247461903
1.9142135623730951
2
2.232050807568877
2.4641016151377544
2.7936036203777075
3.1231056256176606
2.932381506195801
2.582216156882339
2.232050807568877
1.978397839480233
1.724744871391589
1.6284962112572896
1.53224755112299
1.6284962112572894
1.724744871391589
1.978397839480233
2.232050807568877
2.582216156882339
2.932381506195801
2.7416573867739413
2.3708286933869704
2
1.724744871391589
1.4494897427831779
1.3427788601414838
1.2360679774997898
1.3427788601414838
1.4494897427831779
1.724744871391589
2
2.3708286933869704
2.7416573867739413
2.6736043311189652
2.29390894674603
1.9142135623730951
1.6284962112572896
1.3427788601414838
1.2304064244456894
1.118033988749895
1.2304064244456894
1.3427788601414838
1.6284962112572896
1.9142135623730951
2.29390894674603
2.6736043311189652
2.605551275463989
2.2169892001050897
1.8284271247461903
1.53224755112299
1.2360679774997898
1.118033988749895
1
1.118033988749895
1.2360679774997898
1.53224755112299
1.8284271247461903
2.2169892001050897
2.605551275463989
2.6736043311189652
2.29390894674603
1.9142135623730951
1.6284962112572894
1.3427788601414838
1.2304064244456894
1.118033988749895
1.2304064244456894
1.3427788601414838
1.6284962112572896
1.9142135623730951
2.29390894674603
2.6736043311189652
2.7416573867739413
2.3708286933869704
2
1.724744871391589
1.4494897427831779
1.3427788601414838
1.2360679774997898
1.3427788601414838
1.4494897427831779
1.724744871391589
2
2.3708286933869704
2.7416573867739413
2.932381506195801
2.582216156882339
2.232050807568877
1.978397839480233
1.724744871391589
1.6284962112572896
1.53224755112299
1.6284962112572896
1.724744871391589
1.978397839480233
2.232050807568877
2.582216156882339
2.932381506195801
3.1231056256176606
2.7936036203777075
2.4641016151377544
2.232050807568877
2
1.9142135623730951
1.8284271247461903
1.9142135623730951
2
2.232050807568877
2.4641016151377544
2.7936036203777075
3.1231056256176606

