# vtk DataFile Version 4.1
Header:
ASCII

DATASET UNSTRUCTURED_GRID
POINTS 288 double
2.743761684746129 1.5923837047329585 1.4257170380662987
2.6573793139351367 1.6195348189318435 1.4528681522651834
2.880228199736252 1.8423837047329588 1.1757170380662985
2.9545111616699584 1.4962653750120825 1.3295987083454226
2.818044646679835 1.5615663437530176 1.3948996770863578
2.9545111616699575 1.8115663437530176 1.1448996770863578
2.954511161669958 1.144899677086354 1.811566343753024
2.818044646679836 1.394899677086354 1.561566343753024
2.954511161669958 1.3295987083454188 1.4962653750120887
2.880228199736254 1.1757170380662936 1.8423837047329634
2.6573793139351394 1.4528681522651785 1.6195348189318484
2.7437616847461315 1.4257170380662936 1.5923837047329636
2.4257170380662982 1.7437616847461288 1.5923837047329585
2.4528681522651836 1.657379313935137 1.6195348189318435
2.1757170380662982 1.8802281997362518 1.8423837047329585
2.3295987083454226 1.954511161669958 1.4962653750120825
2.3948996770863578 1.8180446466798355 1.5615663437530176
2.144899677086358 1.9545111616699584 1.8115663437530178
2.811566343753024 1.9545111616699582 1.144899677086354
2.5615663437530247 1.8180446466798357 1.394899677086354
2.496265375012089 1.9545111616699582 1.3295987083454188
2.8423837047329634 1.880228199736254 1.1757170380662936
2.6195348189318484 1.6573793139351392 1.4528681522651785
2.5923837047329634 1.743761684746132 1.4257170380662934
2.5923837047329585 1.4257170380662982 1.7437616847461292
2.619534818931844 1.4528681522651836 1.6573793139351367
2.8423837047329585 1.1757170380662985 1.8802281997362518
2.4962653750120825 1.3295987083454226 1.9545111616699584
2.5615663437530176 1.3948996770863575 1.8180446466798352
2.811566343753018 1.144899677086358 1.9545111616699584
2.1448996770863538 1.811566343753024 1.9545111616699582
2.3948996770863538 1.5615663437530238 1.8180446466798355
2.329598708345419 1.4962653750120887 1.9545111616699584
2.1757170380662934 1.8423837047329634 1.8802281997362544
2.4528681522651783 1.6195348189318486 1.6573793139351394
2.4257170380662934 1.5923837047329634 1.7437616847461317
3.0454888383300416 1.811566343753024 1.144899677086354
3.1819553533201645 1.5615663437530243 1.3948996770863542
3.0454888383300416 1.4962653750120887 1.3295987083454188
3.1197718002637456 1.8423837047329632 1.1757170380662936
3.34262068606486 1.6195348189318484 1.4528681522651785
3.256238315253868 1.5923837047329634 1.4257170380662934
3.2562383152538708 1.4257170380662987 1.5923837047329585
3.342620686064863 1.4528681522651834 1.6195348189318435
3.119771800263748 1.1757170380662985 1.8423837047329585
3.045488838330042 1.3295987083454224 1.4962653750120827
3.181955353320164 1.3948996770863578 1.5615663437530178
3.045488838330042 1.1448996770863578 1.811566343753018
3.824282961933706 1.8802281997362544 1.8423837047329634
3.5471318477348213 1.6573793139351394 1.6195348189318484
3.574282961933706 1.743761684746132 1.5923837047329634
3.407616295267041 1.7437616847461292 1.4257170380662987
3.380465181068157 1.6573793139351372 1.4528681522651836
3.1576162952670415 1.880228199736252 1.1757170380662985
3.503734624987918 1.9545111616699584 1.3295987083454224
3.4384336562469815 1.8180446466798355 1.3948996770863578
3.1884336562469824 1.9545111616699582 1.1448996770863578
3.855100322913646 1.9545111616699582 1.811566343753024
3.6051003229136462 1.8180446466798355 1.5615663437530238
3.6704012916545814 1.9545111616699582 1.496265375012089
3.670401291654578 1.4962653750120825 1.9545111616699582
3.605100322913642 1.5615663437530176 1.8180446466798355
3.8551003229136422 1.811566343753018 1.9545111616699584
3.1884336562469757 1.144899677086354 1.9545111616699582
3.4384336562469757 1.3948996770863538 1.8180446466798355
3.5037346249879118 1.3295987083454188 1.9545111616699584
3.157616295267036 1.1757170380662936 1.8802281997362544
3.380465181068151 1.4528681522651787 1.6573793139351394
3.4076162952670366 1.4257170380662934 1.7437616847461315
3.5742829619337018 1.5923837047329585 1.7437616847461292
3.547131847734817 1.6195348189318435 1.6573793139351367
3.8242829619337013 1.8423837047329588 1.8802281997362518
2.1448996770863538 2.0454888383300416 1.811566343753024
2.3948996770863538 2.1819553533201645 1.561566343753024
2.329598708345419 2.045488838330042 1.496265375012089
2.175717038066294 2.119771800263745 1.8423837047329632
2.4528681522651787 2.3426206860648606 1.6195348189318484
2.425717038066294 2.256238315253868 1.5923837047329634
2.5923837047329585 2.2562383152538708 1.4257170380662985
2.619534818931844 2.342620686064863 1.4528681522651834
2.842383704732959 2.1197718002637482 1.1757170380662985
2.496265375012083 2.0454888383300416 1.3295987083454226
2.5615663437530176 2.1819553533201645 1.3948996770863575
2.811566343753017 2.0454888383300416 1.1448996770863578
2.9545111616699584 2.670401291654578 1.4962653750120827
2.8180446466798355 2.6051003229136422 1.5615663437530176
2.954511161669958 2.8551003229136427 1.811566343753018
2.954511161669958 2.1884336562469757 1.144899677086354
2.8180446466798355 2.4384336562469757 1.394899677086354
2.9545111616699584 2.5037346249879113 1.3295987083454188
2.8802281997362535 2.1576162952670366 1.1757170380662936
2.657379313935139 2.3804651810681516 1.4528681522651783
2.743761684746132 2.407616295267036 1.4257170380662931
2.7437616847461292 2.5742829619337018 1.5923837047329585
2.6573793139351367 2.5471318477348164 1.6195348189318435
2.8802281997362518 2.8242829619337013 1.8423837047329583
2.8423837047329634 2.824282961933706 1.8802281997362544
2.619534818931849 2.5471318477348213 1.6573793139351394
2.5923837047329634 2.574282961933706 1.7437616847461317
2.4257170380662987 2.4076162952670415 1.743761684746129
2.4528681522651836 2.3804651810681565 1.6573793139351367
2.1757170380662987 2.1576162952670415 1.8802281997362518
2.3295987083454226 2.5037346249879175 1.9545111616699584
2.3948996770863573 2.438433656246982 1.8180446466798355
2.1448996770863578 2.1884336562469824 1.9545111616699584
2.8115663437530234 2.855100322913646 1.9545111616699582
2.561566343753024 2.6051003229136453 1.8180446466798355
2.496265375012089 2.6704012916545814 1.9545111616699584
3.1576162952670366 2.119771800263746 1.1757170380662936
3.380465181068151 2.34262068606486 1.4528681522651785
3.407616295267036 2.256238315253868 1.4257170380662934
3.574282961933701 2.2562383152538708 1.5923837047329585
3.547131847734817 2.3426206860648633 1.6195348189318437
3.8242829619337013 2.1197718002637482 1.8423837047329583
3.670401291654578 2.045488838330042 1.4962653750120825
3.6051003229136422 2.1819553533201645 1.5615663437530176
3.8551003229136422 2.045488838330042 1.811566343753018
3.1884336562469753 2.0454888383300416 1.144899677086354
3.438433656246976 2.1819553533201645 1.394899677086354
3.503734624987911 2.0454888383300416 1.3295987083454188
3.0454888383300425 2.503734624987917 1.3295987083454224
3.1819553533201637 2.438433656246982 1.3948996770863575
3.0454888383300416 2.188433656246982 1.144899677086358
3.0454888383300416 2.855100322913646 1.811566343753024
3.1819553533201645 2.605100322913646 1.5615663437530238
3.0454888383300425 2.6704012916545814 1.4962653750120887
3.119771800263745 2.824282961933706 1.8423837047329634
3.3426206860648606 2.5471318477348217 1.6195348189318484
3.256238315253868 2.574282961933706 1.5923837047329636
3.2562383152538716 2.407616295267041 1.4257170380662985
3.342620686064863 2.3804651810681565 1.4528681522651834
3.119771800263748 2.157616295267041 1.1757170380662985
3.855100322913646 2.1884336562469757 1.9545111616699582
3.605100322913646 2.4384336562469757 1.8180446466798355
3.6704012916545814 2.5037346249879118 1.9545111616699584
3.8242829619337066 2.157616295267036 1.8802281997362544
3.5471318477348213 2.3804651810681507 1.6573793139351394
3.5742829619337066 2.407616295267036 1.743761684746132
3.4076162952670415 2.5742829619337018 1.7437616847461288
3.3804651810681565 2.5471318477348164 1.657379313935137
3.1576162952670415 2.8242829619337013 1.8802281997362518
3.503734624987918 2.670401291654578 1.9545111616699584
3.4384336562469815 2.605100322913642 1.8180446466798355
3.1884336562469824 2.8551003229136422 1.9545111616699582
2.811566343753023 1.144899677086354 2.045488838330041
2.5615663437530243 1.394899677086354 2.1819553533201645
2.496265375012089 1.3295987083454188 2.0454888383300416
2.842383704732963 1.1757170380662936 2.119771800263746
2.619534818931849 1.4528681522651785 2.3426206860648606
2.592383704732964 1.4257170380662931 2.256238315253868
2.4257170380662982 1.5923837047329585 2.2562383152538708
2.452868152265183 1.6195348189318435 2.3426206860648633
2.1757170380662987 1.842383704732959 2.1197718002637482
2.329598708345422 1.4962653750120827 2.0454888383300416
2.3948996770863573 1.5615663437530176 2.1819553533201645
2.1448996770863578 1.8115663437530176 2.0454888383300416
2.8802281997362544 1.8423837047329632 2.824282961933706
2.6573793139351394 1.6195348189318484 2.5471318477348213
2.743761684746132 1.5923837047329636 2.574282961933706
2.7437616847461292 1.4257170380662985 2.407616295267042
2.657379313935137 1.4528681522651834 2.380465181068156
2.8802281997362513 1.1757170380662982 2.157616295267041
2.954511161669958 1.3295987083454224 2.503734624987917
2.818044646679835 1.3948996770863575 2.438433656246982
2.954511161669958 1.144899677086358 2.188433656246982
2.954511161669958 1.811566343753024 2.855100322913646
2.8180446466798355 1.561566343753024 2.6051003229136462
2.9545111616699584 1.496265375012089 2.670401291654581
2.496265375012083 1.9545111616699582 2.670401291654578
2.5615663437530176 1.8180446466798355 2.6051003229136422
2.811566343753017 1.954511161669958 2.855100322913642
2.1448996770863538 1.9545111616699582 2.1884336562469757
2.394899677086354 1.818044646679836 2.4384336562469757
2.3295987083454186 1.9545111616699584 2.5037346249879118
2.1757170380662934 1.8802281997362544 2.157616295267036
2.4528681522651783 1.6573793139351394 2.3804651810681516
2.4257170380662934 1.743761684746132 2.4076162952670366
2.5923837047329585 1.743761684746129 2.5742829619337018
2.6195348189318435 1.6573793139351367 2.5471318477348164
2.842383704732959 1.880228199736252 2.8242829619337018
3.503734624987918 1.3295987083454224 2.0454888383300416
3.4384336562469815 1.3948996770863575 2.181955353320164
3.188433656246983 1.1448996770863578 2.045488838330042
3.8551003229136453 1.811566343753024 2.0454888383300416
3.605100322913646 1.561566343753024 2.1819553533201645
3.670401291654582 1.496265375012089 2.045488838330042
3.8242829619337066 1.8423837047329632 2.1197718002637456
3.5471318477348217 1.6195348189318484 2.34262068606486
3.574282961933706 1.5923837047329634 2.256238315253868
3.407616295267041 1.4257170380662982 2.2562383152538708
3.380465181068156 1.4528681522651834 2.3426206860648633
3.157616295267041 1.1757170380662987 2.119771800263748
3.1197718002637456 1.1757170380662936 2.157616295267036
3.34262068606486 1.4528681522651785 2.3804651810681516
3.2562383152538685 1.4257170380662934 2.4076162952670366
3.2562383152538708 1.5923837047329585 2.5742829619337013
3.3426206860648633 1.6195348189318435 2.5471318477348164
3.1197718002637487 1.8423837047329588 2.8242829619337018
3.0454888383300425 1.4962653750120825 2.670401291654578
3.181955353320164 1.5615663437530176 2.605100322913642
3.0454888383300416 1.8115663437530176 2.855100322913642
3.0454888383300416 1.144899677086354 2.1884336562469757
3.1819553533201645 1.3948996770863542 2.4384336562469757
3.045488838330042 1.3295987083454188 2.5037346249879113
3.1884336562469757 1.9545111616699582 2.855100322913646
3.4384336562469757 1.8180446466798355 2.6051003229136462
3.5037346249879118 1.9545111616699584 2.6704012916545814
3.157616295267036 1.8802281997362542 2.824282961933706
3.3804651810681507 1.6573793139351392 2.5471318477348213
3.4076162952670366 1.7437616847461317 2.574282961933706
3.5742829619337018 1.743761684746129 2.407616295267041
3.547131847734817 1.657379313935137 2.380465181068156
3.824282961933701 1.880228199736252 2.157616295267041
3.670401291654578 1.9545111616699582 2.503734624987917
3.6051003229136427 1.8180446466798352 2.438433656246982
3.8551003229136427 1.9545111616699582 2.1884336562469824
2.175717038066294 2.157616295267036 2.1197718002637456
2.4528681522651787 2.3804651810681516 2.3426206860648606
2.425717038066293 2.4076162952670366 2.256238315253868
2.592383704732958 2.5742829619337018 2.256238315253871
2.6195348189318435 2.5471318477348164 2.3426206860648633
2.8423837047329585 2.8242829619337018 2.1197718002637482
2.496265375012083 2.6704012916545774 2.045488838330042
2.5615663437530176 2.6051003229136422 2.1819553533201645
2.8115663437530176 2.8551003229136422 2.045488838330042
2.1448996770863538 2.1884336562469757 2.045488838330041
2.3948996770863538 2.438433656246976 2.1819553533201645
2.329598708345419 2.5037346249879118 2.045488838330042
2.329598708345422 2.045488838330042 2.5037346249879175
2.3948996770863573 2.181955353320164 2.438433656246982
2.1448996770863578 2.045488838330042 2.1884336562469824
2.8115663437530234 2.0454888383300416 2.8551003229136453
2.5615663437530243 2.1819553533201645 2.6051003229136462
2.4962653750120887 2.0454888383300416 2.670401291654581
2.842383704732963 2.119771800263745 2.8242829619337058
2.6195348189318484 2.3426206860648606 2.5471318477348213
2.5923837047329634 2.256238315253868 2.574282961933706
2.4257170380662982 2.2562383152538708 2.407616295267042
2.4528681522651836 2.3426206860648633 2.3804651810681565
2.1757170380662982 2.119771800263748 2.1576162952670406
2.954511161669958 2.855100322913646 2.1884336562469757
2.8180446466798355 2.605100322913646 2.4384336562469757
2.9545111616699584 2.6704012916545814 2.5037346249879118
2.880228199736254 2.8242829619337058 2.157616295267036
2.6573793139351394 2.5471318477348213 2.3804651810681516
2.743761684746132 2.574282961933706 2.4076162952670366
2.7437616847461292 2.407616295267042 2.5742829619337018
2.657379313935137 2.380465181068157 2.547131847734817
2.880228199736252 2.1576162952670415 2.8242829619337013
2.954511161669958 2.503734624987918 2.670401291654578
2.818044646679835 2.438433656246982 2.6051003229136422
2.9545111616699575 2.188433656246982 2.855100322913642
3.574282961933701 2.407616295267042 2.2562383152538708
3.547131847734817 2.380465181068156 2.342620686064863
3.8242829619337013 2.157616295267041 2.119771800263748
3.6704012916545774 2.503734624987917 2.045488838330042
3.6051003229136422 2.438433656246982 2.181955353320164
3.8551003229136427 2.188433656246982 2.045488838330042
3.1884336562469753 2.855100322913646 2.0454888383300416
3.438433656246976 2.605100322913646 2.1819553533201645
3.5037346249879118 2.6704012916545814 2.045488838330042
3.1576162952670366 2.8242829619337058 2.119771800263745
3.3804651810681516 2.5471318477348217 2.3426206860648606
3.4076162952670366 2.5742829619337066 2.256238315253868
3.4076162952670415 2.256238315253871 2.5742829619337018
3.380465181068156 2.3426206860648633 2.5471318477348164
3.1576162952670415 2.1197718002637487 2.8242829619337018
3.503734624987918 2.0454888383300416 2.670401291654578
3.4384336562469824 2.1819553533201645 2.6051003229136422
3.188433656246982 2.0454888383300416 2.855100322913642
3.8551003229136453 2.0454888383300416 2.1884336562469757
3.6051003229136462 2.1819553533201645 2.4384336562469757
3.6704012916545814 2.045488838330042 2.5037346249879118
3.8242829619337066 2.119771800263745 2.157616295267036
3.5471318477348213 2.3426206860648606 2.3804651810681516
3.5742829619337066 2.256238315253868 2.4076162952670366
3.2562383152538708 2.5742829619337018 2.4076162952670415
3.342620686064863 2.5471318477348164 2.3804651810681565
3.119771800263748 2.8242829619337018 2.1576162952670415
3.0454888383300416 2.670401291654578 2.5037346249879175
3.181955353320164 2.605100322913642 2.438433656246982
3.045488838330042 2.8551003229136427 2.1884336562469824
3.0454888383300416 2.1884336562469757 2.855100322913646
3.181955353320164 2.4384336562469757 2.605100322913646
3.0454888383300425 2.5037346249879113 2.6704012916545814
3.1197718002637456 2.157616295267036 2.8242829619337058
3.3426206860648606 2.380465181068151 2.5471318477348213
3.256238315253868 2.4076162952670366 2.574282961933706


POINT_DATA 288
SCALARS element_ids double 1
LOOKUP_TABLE default
32
32
32
32
32
32
32
32
32
32
32
32
32
32
32
32
32
32
32
32
32
32
32
32
32
32
32
32
32
32
32
32
32
32
32
32
33
33
33
33
33
33
33
33
33
33
33
33
33
33
33
33
33
33
33
33
33
33
33
33
33
33
33
33
33
33
33
33
33
33
33
33
38
38
38
38
38
38
38
38
38
38
38
38
38
38
38
38
38
38
38
38
38
38
38
38
38
38
38
38
38
38
38
38
38
38
38
38
39
39
39
39
39
39
39
39
39
39
39
39
39
39
39
39
39
39
39
39
39
39
39
39
39
39
39
39
39
39
39
39
39
39
39
39
56
56
56
56
56
56
56
56
56
56
56
56
56
56
56
56
56
56
56
56
56
56
56
56
56
56
56
56
56
56
56
56
56
56
56
56
57
57
57
57
57
57
57
57
57
57
57
57
57
57
57
57
57
57
57
57
57
57
57
57
57
57
57
57
57
57
57
57
57
57
57
57
62
62
62
62
62
62
62
62
62
62
62
62
62
62
62
62
62
62
62
62
62
62
62
62
62
62
62
62
62
62
62
62
62
62
62
62
63
63
63
63
63
63
63
63
63
63
63
63
63
63
63
63
63
63
63
63
63
63
63
63
63
63
63
63
63
63
63
63
63
63
63
63

