# vtk DataFile Version 4.1
Header:
ASCII

DATASET UNSTRUCTURED_GRID
POINTS 80 double
3 2 1
2.7270669700197545 1.5 1.5
2.5543022283977703 1.5543022283977703 1.5543022283977703
3 1.3693980625181295 1.3693980625181295
3 1 2
2 2 2
2.5000000000000004 1.7270669700197545 1.5
2.3693980625181292 2 1.3693980625181292
2.5000000000000004 1.5 1.7270669700197545
2.3693980625181292 1.3693980625181292 2
3 2 1
3 1.3693980625181295 1.3693980625181295
3.272933029980246 1.5 1.5
3.44569777160223 1.5543022283977703 1.5543022283977699
3 1 2
4 2 2
3.5 1.7270669700197545 1.5
3.6306019374818708 2 1.3693980625181295
3.6306019374818708 1.3693980625181295 2
3.5 1.5 1.7270669700197545
2 2 2
2.3693980625181292 2 1.3693980625181295
2.4999999999999996 2.2729330299802455 1.5
2.5543022283977703 2.4456977716022297 1.55430222839777
3 2 1
3 3 2
3 2.6306019374818703 1.3693980625181292
2.7270669700197545 2.5 1.5
2.5000000000000004 2.5 1.7270669700197545
2.3693980625181297 2.6306019374818703 2
3 2 1
3.5 2.2729330299802455 1.5
3.4456977716022306 2.44569777160223 1.5543022283977703
4 2 2
3.6306019374818708 2 1.3693980625181292
3 2.6306019374818703 1.3693980625181292
3.272933029980246 2.5 1.5
3 3 2
3.6306019374818708 2.6306019374818703 2
3.5 2.5 1.7270669700197545
3 1 2
2.3693980625181292 1.3693980625181292 2
2.5 1.5 2.2729330299802455
2.5543022283977703 1.55430222839777 2.4456977716022297
2 2 2
3 2 3
2.7270669700197545 1.5 2.5
3 1.3693980625181292 2.6306019374818703
2.3693980625181297 2 2.6306019374818703
2.5000000000000004 1.7270669700197545 2.5
3 1 2
3.6306019374818708 1.3693980625181295 2
3.5 1.5 2.2729330299802455
4 2 2
3.44569777160223 1.5543022283977703 2.4456977716022297
3.272933029980246 1.5 2.5
3 2 3
3 1.3693980625181292 2.6306019374818703
3.6306019374818708 2 2.6306019374818703
3.5 1.7270669700197545 2.5
2 2 2
2.5 2.5 2.2729330299802455
2.5543022283977708 2.4456977716022297 2.4456977716022297
3 3 2
2.3693980625181297 2.6306019374818703 2
2.3693980625181292 2 2.6306019374818703
2.4999999999999996 2.2729330299802455 2.5
3 2 3
3 2.6306019374818703 2.6306019374818703
2.7270669700197545 2.5 2.5
4 2 2
3.5 2.5 2.2729330299802455
3.44569777160223 2.44569777160223 2.4456977716022297
3.6306019374818708 2.6306019374818703 2
3 3 2
3 2 3
3.5 2.2729330299802455 2.5
3.6306019374818708 2 2.6306019374818703
3.272933029980246 2.5 2.5
3 2.6306019374818703 2.6306019374818703

CELLS 96 384
3 0 1 2
3 0 3 1
3 3 4 1
3 1 4 2
3 5 6 2
3 5 7 6
3 7 0 6
3 6 0 2
3 4 8 2
3 4 9 8
3 9 5 8
3 8 5 2
3 11 10 12
3 12 10 13
3 14 12 13
3 14 11 12
3 16 15 13
3 10 16 13
3 10 17 16
3 17 15 16
3 15 18 19
3 18 14 19
3 19 14 13
3 15 19 13
3 21 20 22
3 22 20 23
3 24 22 23
3 24 21 22
3 25 26 27
3 26 24 27
3 27 24 23
3 25 27 23
3 28 25 23
3 20 28 23
3 20 29 28
3 29 25 28
3 31 30 32
3 33 31 32
3 33 34 31
3 34 30 31
3 30 35 36
3 35 37 36
3 36 37 32
3 30 36 32
3 38 33 39
3 39 33 32
3 37 39 32
3 37 38 39
3 41 40 42
3 42 40 43
3 44 42 43
3 44 41 42
3 46 45 43
3 40 46 43
3 40 47 46
3 47 45 46
3 45 48 49
3 48 44 49
3 49 44 43
3 45 49 43
3 50 51 52
3 51 53 52
3 52 53 54
3 50 52 54
3 55 50 54
3 56 55 54
3 56 57 55
3 57 50 55
3 58 56 59
3 59 56 54
3 53 59 54
3 53 58 59
3 61 60 62
3 63 61 62
3 63 64 61
3 64 60 61
3 60 65 66
3 65 67 66
3 66 67 62
3 60 66 62
3 68 63 69
3 69 63 62
3 67 69 62
3 67 68 69
3 70 71 72
3 70 73 71
3 73 74 71
3 71 74 72
3 75 76 72
3 75 77 76
3 77 70 76
3 76 70 72
3 74 78 72
3 74 79 78
3 79 75 78
3 78 75 72

CELL_TYPES 96
5
5
5
5
5
5
5
5
5
5
5
5
5
5
5
5
5
5
5
5
5
5
5
5
5
5
5
5
5
5
5
5
5
5
5
5
5
5
5
5
5
5
5
5
5
5
5
5
5
5
5
5
5
5
5
5
5
5
5
5
5
5
5
5
5
5
5
5
5
5
5
5
5
5
5
5
5
5
5
5
5
5
5
5
5
5
5
5
5
5
5
5
5
5
5
5


POINT_DATA 80
SCALARS elementID double 1
LOOKUP_TABLE default
32
32
32
32
32
32
32
32
32
32
33
33
33
33
33
33
33
33
33
33
38
38
38
38
38
38
38
38
38
38
39
39
39
39
39
39
39
39
39
39
56
56
56
56
56
56
56
56
56
56
57
57
57
57
57
57
57
57
57
57
62
62
62
62
62
62
62
62
62
62
63
63
63
63
63
63
63
63
63
63

SCALARS lsm_geometryID double 1
LOOKUP_TABLE default
0
0
0
0
0
0
0
0
0
0
0
0
0
0
0
0
0
0
0
0
0
0
0
0
0
0
0
0
0
0
0
0
0
0
0
0
0
0
0
0
0
0
0
0
0
0
0
0
0
0
0
0
0
0
0
0
0
0
0
0
0
0
0
0
0
0
0
0
0
0
0
0
0
0
0
0
0
0
0
0

