# vtk DataFile Version 4.1
Header:
ASCII

DATASET UNSTRUCTURED_GRID
POINTS 175 double
0 0 0
1 0 0
2 0 0
3 0 0
4 0 0
5 0 0
6 0 0
0 1 0
1 1 0
2 1 0
3 1 0
4 1 0
5 1 0
6 1 0
0 2 0
1 2 0
2 2 0
3 2 0
4 2 0
5 2 0
6 2 0
0 3 0
1 3 0
2 3 0
3 3 0
4 3 0
5 3 0
6 3 0
0 4 0
1 4 0
2 4 0
3 4 0
4 4 0
5 4 0
6 4 0
0 0 1
1 0 1
2 0 1
3 0 1
4 0 1
5 0 1
6 0 1
0 1 1
1 1 1
2 1 1
3 1 1
4 1 1
5 1 1
6 1 1
0 2 1
1 2 1
2 2 1
3 2 1
4 2 1
5 2 1
6 2 1
0 3 1
1 3 1
2 3 1
3 3 1
4 3 1
5 3 1
6 3 1
0 4 1
1 4 1
2 4 1
3 4 1
4 4 1
5 4 1
6 4 1
0 0 2
1 0 2
2 0 2
3 0 2
4 0 2
5 0 2
6 0 2
0 1 2
1 1 2
2 1 2
3 1 2
4 1 2
5 1 2
6 1 2
0 2 2
1 2 2
2 2 2
3 2 2
4 2 2
5 2 2
6 2 2
0 3 2
1 3 2
2 3 2
3 3 2
4 3 2
5 3 2
6 3 2
0 4 2
1 4 2
2 4 2
3 4 2
4 4 2
5 4 2
6 4 2
0 0 3
1 0 3
2 0 3
3 0 3
4 0 3
5 0 3
6 0 3
0 1 3
1 1 3
2 1 3
3 1 3
4 1 3
5 1 3
6 1 3
0 2 3
1 2 3
2 2 3
3 2 3
4 2 3
5 2 3
6 2 3
0 3 3
1 3 3
2 3 3
3 3 3
4 3 3
5 3 3
6 3 3
0 4 3
1 4 3
2 4 3
3 4 3
4 4 3
5 4 3
6 4 3
0 0 4
1 0 4
2 0 4
3 0 4
4 0 4
5 0 4
6 0 4
0 1 4
1 1 4
2 1 4
3 1 4
4 1 4
5 1 4
6 1 4
0 2 4
1 2 4
2 2 4
3 2 4
4 2 4
5 2 4
6 2 4
0 3 4
1 3 4
2 3 4
3 3 4
4 3 4
5 3 4
6 3 4
0 4 4
1 4 4
2 4 4
3 4 4
4 4 4
5 4 4
6 4 4


POINT_DATA 175
SCALARS level_set double 1
LOOKUP_TABLE default
3.1231056256176606
2.4641016151377544
2
1.8284271247461903
2
2.4641016151377544
3.1231056256176606
2.7416573867739413
2
1.4494897427831779
1.2360679774997898
1.4494897427831779
2
2.7416573867739413
2.605551275463989
1.8284271247461903
1.2360679774997898
1
1.2360679774997898
1.8284271247461903
2.605551275463989
2.7416573867739413
2
1.4494897427831779
1.2360679774997898
1.4494897427831779
2
2.7416573867739413
3.1231056256176606
2.4641016151377544
2
1.8284271247461903
2
2.4641016151377544
3.1231056256176606
2.7416573867739413
2
1.4494897427831779
1.2360679774997898
1.4494897427831779
2
2.7416573867739413
2.3166247903554
1.4494897427831779
0.7320508075688772
0.41421356237309515
0.7320508075688772
1.4494897427831779
2.3166247903554
2.1622776601683795
1.2360679774997898
0.41421356237309515
0
0.41421356237309515
1.2360679774997898
2.1622776601683795
2.3166247903554
1.4494897427831779
0.7320508075688772
0.41421356237309515
0.7320508075688772
1.4494897427831779
2.3166247903554
2.7416573867739413
2
1.4494897427831779
1.2360679774997898
1.4494897427831779
2
2.7416573867739413
2.605551275463989
1.8284271247461903
1.2360679774997898
1
1.2360679774997898
1.8284271247461903
2.605551275463989
2.1622776601683795
1.2360679774997898
0.41421356237309515
0
0.41421356237309515
1.2360679774997898
2.1622776601683795
2
1
0
-1
0
1
2
2.1622776601683795
1.2360679774997898
0.41421356237309515
0
0.41421356237309515
1.2360679774997898
2.1622776601683795
2.605551275463989
1.8284271247461903
1.2360679774997898
1
1.2360679774997898
1.8284271247461903
2.605551275463989
2.7416573867739413
2
1.4494897427831779
1.2360679774997898
1.4494897427831779
2
2.7416573867739413
2.3166247903554
1.4494897427831779
0.7320508075688772
0.41421356237309515
0.7320508075688772
1.4494897427831779
2.3166247903554
2.1622776601683795
1.2360679774997898
0.41421356237309515
0
0.41421356237309515
1.2360679774997898
2.1622776601683795
2.3166247903554
1.4494897427831779
0.7320508075688772
0.41421356237309515
0.7320508075688772
1.4494897427831779
2.3166247903554
2.7416573867739413
2
1.4494897427831779
1.2360679774997898
1.4494897427831779
2
2.7416573867739413
3.1231056256176606
2.4641016151377544
2
1.8284271247461903
2
2.4641016151377544
3.1231056256176606
2.7416573867739413
2
1.4494897427831779
1.2360679774997898
1.4494897427831779
2
2.7416573867739413
2.605551275463989
1.8284271247461903
1.2360679774997898
1
1.2360679774997898
1.8284271247461903
2.605551275463989
2.7416573867739413
2
1.4494897427831779
1.2360679774997898
1.4494897427831779
2
2.7416573867739413
3.1231056256176606
2.4641016151377544
2
1.8284271247461903
2
2.4641016151377544
3.1231056256176606

