# vtk DataFile Version 4.1
Header:
ASCII

DATASET UNSTRUCTURED_GRID
POINTS 1053 double
0 0 0
0.5 0 0
1 0 0
1.5 0 0
2 0 0
2.5 0 0
3 0 0
3.5 0 0
4 0 0
4.5 0 0
5 0 0
5.5 0 0
6 0 0
0 0.5 0
0.5 0.5 0
1 0.5 0
1.5 0.5 0
2 0.5 0
2.5 0.5 0
3 0.5 0
3.5 0.5 0
4 0.5 0
4.5 0.5 0
5 0.5 0
5.5 0.5 0
6 0.5 0
0 1 0
0.5 1 0
1 1 0
1.5 1 0
2 1 0
2.5 1 0
3 1 0
3.5 1 0
4 1 0
4.5 1 0
5 1 0
5.5 1 0
6 1 0
0 1.5 0
0.5 1.5 0
1 1.5 0
1.5 1.5 0
2 1.5 0
2.5 1.5 0
3 1.5 0
3.5 1.5 0
4 1.5 0
4.5 1.5 0
5 1.5 0
5.5 1.5 0
6 1.5 0
0 2 0
0.5 2 0
1 2 0
1.5 2 0
2 2 0
2.5 2 0
3 2 0
3.5 2 0
4 2 0
4.5 2 0
5 2 0
5.5 2 0
6 2 0
0 2.5 0
0.5 2.5 0
1 2.5 0
1.5 2.5 0
2 2.5 0
2.5 2.5 0
3 2.5 0
3.5 2.5 0
4 2.5 0
4.5 2.5 0
5 2.5 0
5.5 2.5 0
6 2.5 0
0 3 0
0.5 3 0
1 3 0
1.5 3 0
2 3 0
2.5 3 0
3 3 0
3.5 3 0
4 3 0
4.5 3 0
5 3 0
5.5 3 0
6 3 0
0 3.5 0
0.5 3.5 0
1 3.5 0
1.5 3.5 0
2 3.5 0
2.5 3.5 0
3 3.5 0
3.5 3.5 0
4 3.5 0
4.5 3.5 0
5 3.5 0
5.5 3.5 0
6 3.5 0
0 4 0
0.5 4 0
1 4 0
1.5 4 0
2 4 0
2.5 4 0
3 4 0
3.5 4 0
4 4 0
4.5 4 0
5 4 0
5.5 4 0
6 4 0
0 0 0.5
0.5 0 0.5
1 0 0.5
1.5 0 0.5
2 0 0.5
2.5 0 0.5
3 0 0.5
3.5 0 0.5
4 0 0.5
4.5 0 0.5
5 0 0.5
5.5 0 0.5
6 0 0.5
0 0.5 0.5
0.5 0.5 0.5
1 0.5 0.5
1.5 0.5 0.5
2 0.5 0.5
2.5 0.5 0.5
3 0.5 0.5
3.5 0.5 0.5
4 0.5 0.5
4.5 0.5 0.5
5 0.5 0.5
5.5 0.5 0.5
6 0.5 0.5
0 1 0.5
0.5 1 0.5
1 1 0.5
1.5 1 0.5
2 1 0.5
2.5 1 0.5
3 1 0.5
3.5 1 0.5
4 1 0.5
4.5 1 0.5
5 1 0.5
5.5 1 0.5
6 1 0.5
0 1.5 0.5
0.5 1.5 0.5
1 1.5 0.5
1.5 1.5 0.5
2 1.5 0.5
2.5 1.5 0.5
3 1.5 0.5
3.5 1.5 0.5
4 1.5 0.5
4.5 1.5 0.5
5 1.5 0.5
5.5 1.5 0.5
6 1.5 0.5
0 2 0.5
0.5 2 0.5
1 2 0.5
1.5 2 0.5
2 2 0.5
2.5 2 0.5
3 2 0.5
3.5 2 0.5
4 2 0.5
4.5 2 0.5
5 2 0.5
5.5 2 0.5
6 2 0.5
0 2.5 0.5
0.5 2.5 0.5
1 2.5 0.5
1.5 2.5 0.5
2 2.5 0.5
2.5 2.5 0.5
3 2.5 0.5
3.5 2.5 0.5
4 2.5 0.5
4.5 2.5 0.5
5 2.5 0.5
5.5 2.5 0.5
6 2.5 0.5
0 3 0.5
0.5 3 0.5
1 3 0.5
1.5 3 0.5
2 3 0.5
2.5 3 0.5
3 3 0.5
3.5 3 0.5
4 3 0.5
4.5 3 0.5
5 3 0.5
5.5 3 0.5
6 3 0.5
0 3.5 0.5
0.5 3.5 0.5
1 3.5 0.5
1.5 3.5 0.5
2 3.5 0.5
2.5 3.5 0.5
3 3.5 0.5
3.5 3.5 0.5
4 3.5 0.5
4.5 3.5 0.5
5 3.5 0.5
5.5 3.5 0.5
6 3.5 0.5
0 4 0.5
0.5 4 0.5
1 4 0.5
1.5 4 0.5
2 4 0.5
2.5 4 0.5
3 4 0.5
3.5 4 0.5
4 4 0.5
4.5 4 0.5
5 4 0.5
5.5 4 0.5
6 4 0.5
0 0 1
0.5 0 1
1 0 1
1.5 0 1
2 0 1
2.5 0 1
3 0 1
3.5 0 1
4 0 1
4.5 0 1
5 0 1
5.5 0 1
6 0 1
0 0.5 1
0.5 0.5 1
1 0.5 1
1.5 0.5 1
2 0.5 1
2.5 0.5 1
3 0.5 1
3.5 0.5 1
4 0.5 1
4.5 0.5 1
5 0.5 1
5.5 0.5 1
6 0.5 1
0 1 1
0.5 1 1
1 1 1
1.5 1 1
2 1 1
2.5 1 1
3 1 1
3.5 1 1
4 1 1
4.5 1 1
5 1 1
5.5 1 1
6 1 1
0 1.5 1
0.5 1.5 1
1 1.5 1
1.5 1.5 1
2 1.5 1
2.5 1.5 1
3 1.5 1
3.5 1.5 1
4 1.5 1
4.5 1.5 1
5 1.5 1
5.5 1.5 1
6 1.5 1
0 2 1
0.5 2 1
1 2 1
1.5 2 1
2 2 1
2.5 2 1
3 2 1
3.5 2 1
4 2 1
4.5 2 1
5 2 1
5.5 2 1
6 2 1
0 2.5 1
0.5 2.5 1
1 2.5 1
1.5 2.5 1
2 2.5 1
2.5 2.5 1
3 2.5 1
3.5 2.5 1
4 2.5 1
4.5 2.5 1
5 2.5 1
5.5 2.5 1
6 2.5 1
0 3 1
0.5 3 1
1 3 1
1.5 3 1
2 3 1
2.5 3 1
3 3 1
3.5 3 1
4 3 1
4.5 3 1
5 3 1
5.5 3 1
6 3 1
0 3.5 1
0.5 3.5 1
1 3.5 1
1.5 3.5 1
2 3.5 1
2.5 3.5 1
3 3.5 1
3.5 3.5 1
4 3.5 1
4.5 3.5 1
5 3.5 1
5.5 3.5 1
6 3.5 1
0 4 1
0.5 4 1
1 4 1
1.5 4 1
2 4 1
2.5 4 1
3 4 1
3.5 4 1
4 4 1
4.5 4 1
5 4 1
5.5 4 1
6 4 1
0 0 1.5
0.5 0 1.5
1 0 1.5
1.5 0 1.5
2 0 1.5
2.5 0 1.5
3 0 1.5
3.5 0 1.5
4 0 1.5
4.5 0 1.5
5 0 1.5
5.5 0 1.5
6 0 1.5
0 0.5 1.5
0.5 0.5 1.5
1 0.5 1.5
1.5 0.5 1.5
2 0.5 1.5
2.5 0.5 1.5
3 0.5 1.5
3.5 0.5 1.5
4 0.5 1.5
4.5 0.5 1.5
5 0.5 1.5
5.5 0.5 1.5
6 0.5 1.5
0 1 1.5
0.5 1 1.5
1 1 1.5
1.5 1 1.5
2 1 1.5
2.5 1 1.5
3 1 1.5
3.5 1 1.5
4 1 1.5
4.5 1 1.5
5 1 1.5
5.5 1 1.5
6 1 1.5
0 1.5 1.5
0.5 1.5 1.5
1 1.5 1.5
1.5 1.5 1.5
2 1.5 1.5
2.5 1.5 1.5
3 1.5 1.5
3.5 1.5 1.5
4 1.5 1.5
4.5 1.5 1.5
5 1.5 1.5
5.5 1.5 1.5
6 1.5 1.5
0 2 1.5
0.5 2 1.5
1 2 1.5
1.5 2 1.5
2 2 1.5
2.5 2 1.5
3 2 1.5
3.5 2 1.5
4 2 1.5
4.5 2 1.5
5 2 1.5
5.5 2 1.5
6 2 1.5
0 2.5 1.5
0.5 2.5 1.5
1 2.5 1.5
1.5 2.5 1.5
2 2.5 1.5
2.5 2.5 1.5
3 2.5 1.5
3.5 2.5 1.5
4 2.5 1.5
4.5 2.5 1.5
5 2.5 1.5
5.5 2.5 1.5
6 2.5 1.5
0 3 1.5
0.5 3 1.5
1 3 1.5
1.5 3 1.5
2 3 1.5
2.5 3 1.5
3 3 1.5
3.5 3 1.5
4 3 1.5
4.5 3 1.5
5 3 1.5
5.5 3 1.5
6 3 1.5
0 3.5 1.5
0.5 3.5 1.5
1 3.5 1.5
1.5 3.5 1.5
2 3.5 1.5
2.5 3.5 1.5
3 3.5 1.5
3.5 3.5 1.5
4 3.5 1.5
4.5 3.5 1.5
5 3.5 1.5
5.5 3.5 1.5
6 3.5 1.5
0 4 1.5
0.5 4 1.5
1 4 1.5
1.5 4 1.5
2 4 1.5
2.5 4 1.5
3 4 1.5
3.5 4 1.5
4 4 1.5
4.5 4 1.5
5 4 1.5
5.5 4 1.5
6 4 1.5
0 0 2
0.5 0 2
1 0 2
1.5 0 2
2 0 2
2.5 0 2
3 0 2
3.5 0 2
4 0 2
4.5 0 2
5 0 2
5.5 0 2
6 0 2
0 0.5 2
0.5 0.5 2
1 0.5 2
1.5 0.5 2
2 0.5 2
2.5 0.5 2
3 0.5 2
3.5 0.5 2
4 0.5 2
4.5 0.5 2
5 0.5 2
5.5 0.5 2
6 0.5 2
0 1 2
0.5 1 2
1 1 2
1.5 1 2
2 1 2
2.5 1 2
3 1 2
3.5 1 2
4 1 2
4.5 1 2
5 1 2
5.5 1 2
6 1 2
0 1.5 2
0.5 1.5 2
1 1.5 2
1.5 1.5 2
2 1.5 2
2.5 1.5 2
3 1.5 2
3.5 1.5 2
4 1.5 2
4.5 1.5 2
5 1.5 2
5.5 1.5 2
6 1.5 2
0 2 2
0.5 2 2
1 2 2
1.5 2 2
2 2 2
2.5 2 2
3 2 2
3.5 2 2
4 2 2
4.5 2 2
5 2 2
5.5 2 2
6 2 2
0 2.5 2
0.5 2.5 2
1 2.5 2
1.5 2.5 2
2 2.5 2
2.5 2.5 2
3 2.5 2
3.5 2.5 2
4 2.5 2
4.5 2.5 2
5 2.5 2
5.5 2.5 2
6 2.5 2
0 3 2
0.5 3 2
1 3 2
1.5 3 2
2 3 2
2.5 3 2
3 3 2
3.5 3 2
4 3 2
4.5 3 2
5 3 2
5.5 3 2
6 3 2
0 3.5 2
0.5 3.5 2
1 3.5 2
1.5 3.5 2
2 3.5 2
2.5 3.5 2
3 3.5 2
3.5 3.5 2
4 3.5 2
4.5 3.5 2
5 3.5 2
5.5 3.5 2
6 3.5 2
0 4 2
0.5 4 2
1 4 2
1.5 4 2
2 4 2
2.5 4 2
3 4 2
3.5 4 2
4 4 2
4.5 4 2
5 4 2
5.5 4 2
6 4 2
0 0 2.5
0.5 0 2.5
1 0 2.5
1.5 0 2.5
2 0 2.5
2.5 0 2.5
3 0 2.5
3.5 0 2.5
4 0 2.5
4.5 0 2.5
5 0 2.5
5.5 0 2.5
6 0 2.5
0 0.5 2.5
0.5 0.5 2.5
1 0.5 2.5
1.5 0.5 2.5
2 0.5 2.5
2.5 0.5 2.5
3 0.5 2.5
3.5 0.5 2.5
4 0.5 2.5
4.5 0.5 2.5
5 0.5 2.5
5.5 0.5 2.5
6 0.5 2.5
0 1 2.5
0.5 1 2.5
1 1 2.5
1.5 1 2.5
2 1 2.5
2.5 1 2.5
3 1 2.5
3.5 1 2.5
4 1 2.5
4.5 1 2.5
5 1 2.5
5.5 1 2.5
6 1 2.5
0 1.5 2.5
0.5 1.5 2.5
1 1.5 2.5
1.5 1.5 2.5
2 1.5 2.5
2.5 1.5 2.5
3 1.5 2.5
3.5 1.5 2.5
4 1.5 2.5
4.5 1.5 2.5
5 1.5 2.5
5.5 1.5 2.5
6 1.5 2.5
0 2 2.5
0.5 2 2.5
1 2 2.5
1.5 2 2.5
2 2 2.5
2.5 2 2.5
3 2 2.5
3.5 2 2.5
4 2 2.5
4.5 2 2.5
5 2 2.5
5.5 2 2.5
6 2 2.5
0 2.5 2.5
0.5 2.5 2.5
1 2.5 2.5
1.5 2.5 2.5
2 2.5 2.5
2.5 2.5 2.5
3 2.5 2.5
3.5 2.5 2.5
4 2.5 2.5
4.5 2.5 2.5
5 2.5 2.5
5.5 2.5 2.5
6 2.5 2.5
0 3 2.5
0.5 3 2.5
1 3 2.5
1.5 3 2.5
2 3 2.5
2.5 3 2.5
3 3 2.5
3.5 3 2.5
4 3 2.5
4.5 3 2.5
5 3 2.5
5.5 3 2.5
6 3 2.5
0 3.5 2.5
0.5 3.5 2.5
1 3.5 2.5
1.5 3.5 2.5
2 3.5 2.5
2.5 3.5 2.5
3 3.5 2.5
3.5 3.5 2.5
4 3.5 2.5
4.5 3.5 2.5
5 3.5 2.5
5.5 3.5 2.5
6 3.5 2.5
0 4 2.5
0.5 4 2.5
1 4 2.5
1.5 4 2.5
2 4 2.5
2.5 4 2.5
3 4 2.5
3.5 4 2.5
4 4 2.5
4.5 4 2.5
5 4 2.5
5.5 4 2.5
6 4 2.5
0 0 3
0.5 0 3
1 0 3
1.5 0 3
2 0 3
2.5 0 3
3 0 3
3.5 0 3
4 0 3
4.5 0 3
5 0 3
5.5 0 3
6 0 3
0 0.5 3
0.5 0.5 3
1 0.5 3
1.5 0.5 3
2 0.5 3
2.5 0.5 3
3 0.5 3
3.5 0.5 3
4 0.5 3
4.5 0.5 3
5 0.5 3
5.5 0.5 3
6 0.5 3
0 1 3
0.5 1 3
1 1 3
1.5 1 3
2 1 3
2.5 1 3
3 1 3
3.5 1 3
4 1 3
4.5 1 3
5 1 3
5.5 1 3
6 1 3
0 1.5 3
0.5 1.5 3
1 1.5 3
1.5 1.5 3
2 1.5 3
2.5 1.5 3
3 1.5 3
3.5 1.5 3
4 1.5 3
4.5 1.5 3
5 1.5 3
5.5 1.5 3
6 1.5 3
0 2 3
0.5 2 3
1 2 3
1.5 2 3
2 2 3
2.5 2 3
3 2 3
3.5 2 3
4 2 3
4.5 2 3
5 2 3
5.5 2 3
6 2 3
0 2.5 3
0.5 2.5 3
1 2.5 3
1.5 2.5 3
2 2.5 3
2.5 2.5 3
3 2.5 3
3.5 2.5 3
4 2.5 3
4.5 2.5 3
5 2.5 3
5.5 2.5 3
6 2.5 3
0 3 3
0.5 3 3
1 3 3
1.5 3 3
2 3 3
2.5 3 3
3 3 3
3.5 3 3
4 3 3
4.5 3 3
5 3 3
5.5 3 3
6 3 3
0 3.5 3
0.5 3.5 3
1 3.5 3
1.5 3.5 3
2 3.5 3
2.5 3.5 3
3 3.5 3
3.5 3.5 3
4 3.5 3
4.5 3.5 3
5 3.5 3
5.5 3.5 3
6 3.5 3
0 4 3
0.5 4 3
1 4 3
1.5 4 3
2 4 3
2.5 4 3
3 4 3
3.5 4 3
4 4 3
4.5 4 3
5 4 3
5.5 4 3
6 4 3
0 0 3.5
0.5 0 3.5
1 0 3.5
1.5 0 3.5
2 0 3.5
2.5 0 3.5
3 0 3.5
3.5 0 3.5
4 0 3.5
4.5 0 3.5
5 0 3.5
5.5 0 3.5
6 0 3.5
0 0.5 3.5
0.5 0.5 3.5
1 0.5 3.5
1.5 0.5 3.5
2 0.5 3.5
2.5 0.5 3.5
3 0.5 3.5
3.5 0.5 3.5
4 0.5 3.5
4.5 0.5 3.5
5 0.5 3.5
5.5 0.5 3.5
6 0.5 3.5
0 1 3.5
0.5 1 3.5
1 1 3.5
1.5 1 3.5
2 1 3.5
2.5 1 3.5
3 1 3.5
3.5 1 3.5
4 1 3.5
4.5 1 3.5
5 1 3.5
5.5 1 3.5
6 1 3.5
0 1.5 3.5
0.5 1.5 3.5
1 1.5 3.5
1.5 1.5 3.5
2 1.5 3.5
2.5 1.5 3.5
3 1.5 3.5
3.5 1.5 3.5
4 1.5 3.5
4.5 1.5 3.5
5 1.5 3.5
5.5 1.5 3.5
6 1.5 3.5
0 2 3.5
0.5 2 3.5
1 2 3.5
1.5 2 3.5
2 2 3.5
2.5 2 3.5
3 2 3.5
3.5 2 3.5
4 2 3.5
4.5 2 3.5
5 2 3.5
5.5 2 3.5
6 2 3.5
0 2.5 3.5
0.5 2.5 3.5
1 2.5 3.5
1.5 2.5 3.5
2 2.5 3.5
2.5 2.5 3.5
3 2.5 3.5
3.5 2.5 3.5
4 2.5 3.5
4.5 2.5 3.5
5 2.5 3.5
5.5 2.5 3.5
6 2.5 3.5
0 3 3.5
0.5 3 3.5
1 3 3.5
1.5 3 3.5
2 3 3.5
2.5 3 3.5
3 3 3.5
3.5 3 3.5
4 3 3.5
4.5 3 3.5
5 3 3.5
5.5 3 3.5
6 3 3.5
0 3.5 3.5
0.5 3.5 3.5
1 3.5 3.5
1.5 3.5 3.5
2 3.5 3.5
2.5 3.5 3.5
3 3.5 3.5
3.5 3.5 3.5
4 3.5 3.5
4.5 3.5 3.5
5 3.5 3.5
5.5 3.5 3.5
6 3.5 3.5
0 4 3.5
0.5 4 3.5
1 4 3.5
1.5 4 3.5
2 4 3.5
2.5 4 3.5
3 4 3.5
3.5 4 3.5
4 4 3.5
4.5 4 3.5
5 4 3.5
5.5 4 3.5
6 4 3.5
0 0 4
0.5 0 4
1 0 4
1.5 0 4
2 0 4
2.5 0 4
3 0 4
3.5 0 4
4 0 4
4.5 0 4
5 0 4
5.5 0 4
6 0 4
0 0.5 4
0.5 0.5 4
1 0.5 4
1.5 0.5 4
2 0.5 4
2.5 0.5 4
3 0.5 4
3.5 0.5 4
4 0.5 4
4.5 0.5 4
5 0.5 4
5.5 0.5 4
6 0.5 4
0 1 4
0.5 1 4
1 1 4
1.5 1 4
2 1 4
2.5 1 4
3 1 4
3.5 1 4
4 1 4
4.5 1 4
5 1 4
5.5 1 4
6 1 4
0 1.5 4
0.5 1.5 4
1 1.5 4
1.5 1.5 4
2 1.5 4
2.5 1.5 4
3 1.5 4
3.5 1.5 4
4 1.5 4
4.5 1.5 4
5 1.5 4
5.5 1.5 4
6 1.5 4
0 2 4
0.5 2 4
1 2 4
1.5 2 4
2 2 4
2.5 2 4
3 2 4
3.5 2 4
4 2 4
4.5 2 4
5 2 4
5.5 2 4
6 2 4
0 2.5 4
0.5 2.5 4
1 2.5 4
1.5 2.5 4
2 2.5 4
2.5 2.5 4
3 2.5 4
3.5 2.5 4
4 2.5 4
4.5 2.5 4
5 2.5 4
5.5 2.5 4
6 2.5 4
0 3 4
0.5 3 4
1 3 4
1.5 3 4
2 3 4
2.5 3 4
3 3 4
3.5 3 4
4 3 4
4.5 3 4
5 3 4
5.5 3 4
6 3 4
0 3.5 4
0.5 3.5 4
1 3.5 4
1.5 3.5 4
2 3.5 4
2.5 3.5 4
3 3.5 4
3.5 3.5 4
4 3.5 4
4.5 3.5 4
5 3.5 4
5.5 3.5 4
6 3.5 4
0 4 4
0.5 4 4
1 4 4
1.5 4 4
2 4 4
2.5 4 4
3 4 4
3.5 4 4
4 4 4
4.5 4 4
5 4 4
5.5 4 4
6 4 4


POINT_DATA 1053
SCALARS level_set double 1
LOOKUP_TABLE default
3.1231056256176606
2.774917217635375
2.4641016151377544
2.2015621187164243
2
1.8722813232690143
1.8284271247461903
1.8722813232690143
2
2.2015621187164243
2.4641016151377544
2.774917217635375
3.1231056256176606
2.905124837953327
2.5355339059327378
2.2015621187164243
1.9154759474226504
1.6925824035672519
1.5495097567963922
1.5
1.5495097567963922
1.6925824035672519
1.9154759474226504
2.2015621187164243
2.5355339059327378
2.905124837953327
2.7416573867739413
2.3541019662496847
2
1.6925824035672519
1.4494897427831779
1.29128784747792
1.2360679774997898
1.29128784747792
1.4494897427831779
1.6925824035672519
2
2.3541019662496847
2.7416573867739413
2.640054944640259
2.24037034920393
1.8722813232690143
1.5495097567963922
1.29128784747792
1.1213203435596424
1.0615528128088303
1.1213203435596424
1.29128784747792
1.5495097567963922
1.8722813232690143
2.24037034920393
2.640054944640259
2.605551275463989
2.2015621187164243
1.8284271247461903
1.5
1.2360679774997898
1.0615528128088303
1
1.0615528128088303
1.2360679774997898
1.5
1.8284271247461903
2.2015621187164243
2.605551275463989
2.640054944640259
2.24037034920393
1.8722813232690143
1.5495097567963922
1.29128784747792
1.1213203435596424
1.0615528128088303
1.1213203435596424
1.29128784747792
1.5495097567963922
1.8722813232690143
2.24037034920393
2.640054944640259
2.7416573867739413
2.3541019662496847
2
1.6925824035672519
1.4494897427831779
1.29128784747792
1.2360679774997898
1.29128784747792
1.4494897427831779
1.6925824035672519
2
2.3541019662496847
2.7416573867739413
2.905124837953327
2.5355339059327378
2.2015621187164243
1.9154759474226504
1.6925824035672519
1.5495097567963922
1.5
1.5495097567963922
1.6925824035672519
1.9154759474226504
2.2015621187164243
2.5355339059327378
2.905124837953327
3.1231056256176606
2.774917217635375
2.4641016151377544
2.2015621187164243
2
1.8722813232690143
1.8284271247461903
1.8722813232690143
2
2.2015621187164243
2.4641016151377544
2.774917217635375
3.1231056256176606
2.905124837953327
2.5355339059327378
2.2015621187164243
1.9154759474226504
1.6925824035672519
1.5495097567963922
1.5
1.5495097567963922
1.6925824035672519
1.9154759474226504
2.2015621187164243
2.5355339059327378
2.905124837953327
2.6742346141747673
2.278719262151
1.9154759474226504
1.598076211353316
1.3452078799117149
1.179449471770337
1.1213203435596424
1.179449471770337
1.3452078799117149
1.598076211353316
1.9154759474226504
2.278719262151
2.6742346141747673
2.5
2.082207001484488
1.6925824035672519
1.3452078799117149
1.0615528128088303
0.8708286933869707
0.8027756377319946
0.8708286933869707
1.0615528128088303
1.3452078799117149
1.6925824035672519
2.082207001484488
2.5
2.391164991562634
1.958039891549808
1.5495097567963922
1.179449471770337
0.8708286933869707
0.6583123951776999
0.5811388300841898
0.6583123951776999
0.8708286933869707
1.179449471770337
1.5495097567963922
1.958039891549808
2.391164991562634
2.3541019662496847
1.9154759474226504
1.5
1.1213203435596424
0.8027756377319946
0.5811388300841898
0.5
0.5811388300841898
0.8027756377319946
1.1213203435596424
1.5
1.9154759474226504
2.3541019662496847
2.391164991562634
1.958039891549808
1.5495097567963922
1.179449471770337
0.8708286933869707
0.6583123951776999
0.5811388300841898
0.6583123951776999
0.8708286933869707
1.179449471770337
1.5495097567963922
1.958039891549808
2.391164991562634
2.5
2.082207001484488
1.6925824035672519
1.3452078799117149
1.0615528128088303
0.8708286933869707
0.8027756377319946
0.8708286933869707
1.0615528128088303
1.3452078799117149
1.6925824035672519
2.082207001484488
2.5
2.6742346141747673
2.278719262151
1.9154759474226504
1.598076211353316
1.3452078799117149
1.179449471770337
1.1213203435596424
1.179449471770337
1.3452078799117149
1.598076211353316
1.9154759474226504
2.278719262151
2.6742346141747673
2.905124837953327
2.5355339059327378
2.2015621187164243
1.9154759474226504
1.6925824035672519
1.5495097567963922
1.5
1.5495097567963922
1.6925824035672519
1.9154759474226504
2.2015621187164243
2.5355339059327378
2.905124837953327
2.7416573867739413
2.3541019662496847
2
1.6925824035672519
1.4494897427831779
1.29128784747792
1.2360679774997898
1.29128784747792
1.4494897427831779
1.6925824035672519
2
2.3541019662496847
2.7416573867739413
2.5
2.082207001484488
1.6925824035672519
1.3452078799117149
1.0615528128088303
0.8708286933869707
0.8027756377319946
0.8708286933869707
1.0615528128088303
1.3452078799117149
1.6925824035672519
2.082207001484488
2.5
2.3166247903554
1.8722813232690143
1.4494897427831779
1.0615528128088303
0.7320508075688772
0.5
0.41421356237309515
0.5
0.7320508075688772
1.0615528128088303
1.4494897427831779
1.8722813232690143
2.3166247903554
2.2015621187164243
1.7386127875258306
1.29128784747792
0.8708286933869707
0.5
0.22474487139158894
0.1180339887498949
0.22474487139158894
0.5
0.8708286933869707
1.29128784747792
1.7386127875258306
2.2015621187164243
2.1622776601683795
1.6925824035672519
1.2360679774997898
0.8027756377319946
0.41421356237309515
0.1180339887498949
0
0.1180339887498949
0.41421356237309515
0.8027756377319946
1.2360679774997898
1.6925824035672519
2.1622776601683795
2.2015621187164243
1.7386127875258306
1.29128784747792
0.8708286933869707
0.5
0.22474487139158894
0.1180339887498949
0.22474487139158894
0.5
0.8708286933869707
1.29128784747792
1.7386127875258306
2.2015621187164243
2.3166247903554
1.8722813232690143
1.4494897427831779
1.0615528128088303
0.7320508075688772
0.5
0.41421356237309515
0.5
0.7320508075688772
1.0615528128088303
1.4494897427831779
1.8722813232690143
2.3166247903554
2.5
2.082207001484488
1.6925824035672519
1.3452078799117149
1.0615528128088303
0.8708286933869707
0.8027756377319946
0.8708286933869707
1.0615528128088303
1.3452078799117149
1.6925824035672519
2.082207001484488
2.5
2.7416573867739413
2.3541019662496847
2
1.6925824035672519
1.4494897427831779
1.29128784747792
1.2360679774997898
1.29128784747792
1.4494897427831779
1.6925824035672519
2
2.3541019662496847
2.7416573867739413
2.640054944640259
2.24037034920393
1.8722813232690143
1.5495097567963922
1.29128784747792
1.1213203435596424
1.0615528128088303
1.1213203435596424
1.29128784747792
1.5495097567963922
1.8722813232690143
2.24037034920393
2.640054944640259
2.391164991562634
1.958039891549808
1.5495097567963922
1.179449471770337
0.8708286933869707
0.6583123951776999
0.5811388300841898
0.6583123951776999
0.8708286933869707
1.179449471770337
1.5495097567963922
1.958039891549808
2.391164991562634
2.2015621187164243
1.7386127875258306
1.29128784747792
0.8708286933869707
0.5
0.22474487139158894
0.1180339887498949
0.22474487139158894
0.5
0.8708286933869707
1.29128784747792
1.7386127875258306
2.2015621187164243
2.082207001484488
1.598076211353316
1.1213203435596424
0.6583123951776999
0.22474487139158894
-0.1339745962155614
-0.2928932188134524
-0.1339745962155614
0.22474487139158894
0.6583123951776999
1.1213203435596424
1.598076211353316
2.082207001484488
2.0413812651491097
1.5495097567963922
1.0615528128088303
0.5811388300841898
0.1180339887498949
-0.2928932188134524
-0.5
-0.2928932188134524
0.1180339887498949
0.5811388300841898
1.0615528128088303
1.5495097567963922
2.0413812651491097
2.082207001484488
1.598076211353316
1.1213203435596424
0.6583123951776999
0.22474487139158894
-0.1339745962155614
-0.2928932188134524
-0.1339745962155614
0.22474487139158894
0.6583123951776999
1.1213203435596424
1.598076211353316
2.082207001484488
2.2015621187164243
1.7386127875258306
1.29128784747792
0.8708286933869707
0.5
0.22474487139158894
0.1180339887498949
0.22474487139158894
0.5
0.8708286933869707
1.29128784747792
1.7386127875258306
2.2015621187164243
2.391164991562634
1.958039891549808
1.5495097567963922
1.179449471770337
0.8708286933869707
0.6583123951776999
0.5811388300841898
0.6583123951776999
0.8708286933869707
1.179449471770337
1.5495097567963922
1.958039891549808
2.391164991562634
2.640054944640259
2.24037034920393
1.8722813232690143
1.5495097567963922
1.29128784747792
1.1213203435596424
1.0615528128088303
1.1213203435596424
1.29128784747792
1.5495097567963922
1.8722813232690143
2.24037034920393
2.640054944640259
2.605551275463989
2.2015621187164243
1.8284271247461903
1.5
1.2360679774997898
1.0615528128088303
1
1.0615528128088303
1.2360679774997898
1.5
1.8284271247461903
2.2015621187164243
2.605551275463989
2.3541019662496847
1.9154759474226504
1.5
1.1213203435596424
0.8027756377319946
0.5811388300841898
0.5
0.5811388300841898
0.8027756377319946
1.1213203435596424
1.5
1.9154759474226504
2.3541019662496847
2.1622776601683795
1.6925824035672519
1.2360679774997898
0.8027756377319946
0.41421356237309515
0.1180339887498949
0
0.1180339887498949
0.41421356237309515
0.8027756377319946
1.2360679774997898
1.6925824035672519
2.1622776601683795
2.0413812651491097
1.5495097567963922
1.0615528128088303
0.5811388300841898
0.1180339887498949
-0.2928932188134524
-0.5
-0.2928932188134524
0.1180339887498949
0.5811388300841898
1.0615528128088303
1.5495097567963922
2.0413812651491097
2
1.5
1
0.5
0
-0.5
-1
-0.5
0
0.5
1
1.5
2
2.0413812651491097
1.5495097567963922
1.0615528128088303
0.5811388300841898
0.1180339887498949
-0.2928932188134524
-0.5
-0.2928932188134524
0.1180339887498949
0.5811388300841898
1.0615528128088303
1.5495097567963922
2.0413812651491097
2.1622776601683795
1.6925824035672519
1.2360679774997898
0.8027756377319946
0.41421356237309515
0.1180339887498949
0
0.1180339887498949
0.41421356237309515
0.8027756377319946
1.2360679774997898
1.6925824035672519
2.1622776601683795
2.3541019662496847
1.9154759474226504
1.5
1.1213203435596424
0.8027756377319946
0.5811388300841898
0.5
0.5811388300841898
0.8027756377319946
1.1213203435596424
1.5
1.9154759474226504
2.3541019662496847
2.605551275463989
2.2015621187164243
1.8284271247461903
1.5
1.2360679774997898
1.0615528128088303
1
1.0615528128088303
1.2360679774997898
1.5
1.8284271247461903
2.2015621187164243
2.605551275463989
2.640054944640259
2.24037034920393
1.8722813232690143
1.5495097567963922
1.29128784747792
1.1213203435596424
1.0615528128088303
1.1213203435596424
1.29128784747792
1.5495097567963922
1.8722813232690143
2.24037034920393
2.640054944640259
2.391164991562634
1.958039891549808
1.5495097567963922
1.179449471770337
0.8708286933869707
0.6583123951776999
0.5811388300841898
0.6583123951776999
0.8708286933869707
1.179449471770337
1.5495097567963922
1.958039891549808
2.391164991562634
2.2015621187164243
1.7386127875258306
1.29128784747792
0.8708286933869707
0.5
0.22474487139158894
0.1180339887498949
0.22474487139158894
0.5
0.8708286933869707
1.29128784747792
1.7386127875258306
2.2015621187164243
2.082207001484488
1.598076211353316
1.1213203435596424
0.6583123951776999
0.22474487139158894
-0.1339745962155614
-0.2928932188134524
-0.1339745962155614
0.22474487139158894
0.6583123951776999
1.1213203435596424
1.598076211353316
2.082207001484488
2.0413812651491097
1.5495097567963922
1.0615528128088303
0.5811388300841898
0.1180339887498949
-0.2928932188134524
-0.5
-0.2928932188134524
0.1180339887498949
0.5811388300841898
1.0615528128088303
1.5495097567963922
2.0413812651491097
2.082207001484488
1.598076211353316
1.1213203435596424
0.6583123951776999
0.22474487139158894
-0.1339745962155614
-0.2928932188134524
-0.1339745962155614
0.22474487139158894
0.6583123951776999
1.1213203435596424
1.598076211353316
2.082207001484488
2.2015621187164243
1.7386127875258306
1.29128784747792
0.8708286933869707
0.5
0.22474487139158894
0.1180339887498949
0.22474487139158894
0.5
0.8708286933869707
1.29128784747792
1.7386127875258306
2.2015621187164243
2.391164991562634
1.958039891549808
1.5495097567963922
1.179449471770337
0.8708286933869707
0.6583123951776999
0.5811388300841898
0.6583123951776999
0.8708286933869707
1.179449471770337
1.5495097567963922
1.958039891549808
2.391164991562634
2.640054944640259
2.24037034920393
1.8722813232690143
1.5495097567963922
1.29128784747792
1.1213203435596424
1.0615528128088303
1.1213203435596424
1.29128784747792
1.5495097567963922
1.8722813232690143
2.24037034920393
2.640054944640259
2.7416573867739413
2.3541019662496847
2
1.6925824035672519
1.4494897427831779
1.29128784747792
1.2360679774997898
1.29128784747792
1.4494897427831779
1.6925824035672519
2
2.3541019662496847
2.7416573867739413
2.5
2.082207001484488
1.6925824035672519
1.3452078799117149
1.0615528128088303
0.8708286933869707
0.8027756377319946
0.8708286933869707
1.0615528128088303
1.3452078799117149
1.6925824035672519
2.082207001484488
2.5
2.3166247903554
1.8722813232690143
1.4494897427831779
1.0615528128088303
0.7320508075688772
0.5
0.41421356237309515
0.5
0.7320508075688772
1.0615528128088303
1.4494897427831779
1.8722813232690143
2.3166247903554
2.2015621187164243
1.7386127875258306
1.29128784747792
0.8708286933869707
0.5
0.22474487139158894
0.1180339887498949
0.22474487139158894
0.5
0.8708286933869707
1.29128784747792
1.7386127875258306
2.2015621187164243
2.1622776601683795
1.6925824035672519
1.2360679774997898
0.8027756377319946
0.41421356237309515
0.1180339887498949
0
0.1180339887498949
0.41421356237309515
0.8027756377319946
1.2360679774997898
1.6925824035672519
2.1622776601683795
2.2015621187164243
1.7386127875258306
1.29128784747792
0.8708286933869707
0.5
0.22474487139158894
0.1180339887498949
0.22474487139158894
0.5
0.8708286933869707
1.29128784747792
1.7386127875258306
2.2015621187164243
2.3166247903554
1.8722813232690143
1.4494897427831779
1.0615528128088303
0.7320508075688772
0.5
0.41421356237309515
0.5
0.7320508075688772
1.0615528128088303
1.4494897427831779
1.8722813232690143
2.3166247903554
2.5
2.082207001484488
1.6925824035672519
1.3452078799117149
1.0615528128088303
0.8708286933869707
0.8027756377319946
0.8708286933869707
1.0615528128088303
1.3452078799117149
1.6925824035672519
2.082207001484488
2.5
2.7416573867739413
2.3541019662496847
2
1.6925824035672519
1.4494897427831779
1.29128784747792
1.2360679774997898
1.29128784747792
1.4494897427831779
1.6925824035672519
2
2.3541019662496847
2.7416573867739413
2.905124837953327
2.5355339059327378
2.2015621187164243
1.9154759474226504
1.6925824035672519
1.5495097567963922
1.5
1.5495097567963922
1.6925824035672519
1.9154759474226504
2.2015621187164243
2.5355339059327378
2.905124837953327
2.6742346141747673
2.278719262151
1.9154759474226504
1.598076211353316
1.3452078799117149
1.179449471770337
1.1213203435596424
1.179449471770337
1.3452078799117149
1.598076211353316
1.9154759474226504
2.278719262151
2.6742346141747673
2.5
2.082207001484488
1.6925824035672519
1.3452078799117149
1.0615528128088303
0.8708286933869707
0.8027756377319946
0.8708286933869707
1.0615528128088303
1.3452078799117149
1.6925824035672519
2.082207001484488
2.5
2.391164991562634
1.958039891549808
1.5495097567963922
1.179449471770337
0.8708286933869707
0.6583123951776999
0.5811388300841898
0.6583123951776999
0.8708286933869707
1.179449471770337
1.5495097567963922
1.958039891549808
2.391164991562634
2.3541019662496847
1.9154759474226504
1.5
1.1213203435596424
0.8027756377319946
0.5811388300841898
0.5
0.5811388300841898
0.8027756377319946
1.1213203435596424
1.5
1.9154759474226504
2.3541019662496847
2.391164991562634
1.958039891549808
1.5495097567963922
1.179449471770337
0.8708286933869707
0.6583123951776999
0.5811388300841898
0.6583123951776999
0.8708286933869707
1.179449471770337
1.5495097567963922
1.958039891549808
2.391164991562634
2.5
2.082207001484488
1.6925824035672519
1.3452078799117149
1.0615528128088303
0.8708286933869707
0.8027756377319946
0.8708286933869707
1.0615528128088303
1.3452078799117149
1.6925824035672519
2.082207001484488
2.5
2.6742346141747673
2.278719262151
1.9154759474226504
1.598076211353316
1.3452078799117149
1.179449471770337
1.1213203435596424
1.179449471770337
1.3452078799117149
1.598076211353316
1.9154759474226504
2.278719262151
2.6742346141747673
2.905124837953327
2.5355339059327378
2.2015621187164243
1.9154759474226504
1.6925824035672519
1.5495097567963922
1.5
1.5495097567963922
1.6925824035672519
1.9154759474226504
2.2015621187164243
2.5355339059327378
2.905124837953327
3.1231056256176606
2.774917217635375
2.4641016151377544
2.2015621187164243
2
1.8722813232690143
1.8284271247461903
1.8722813232690143
2
2.2015621187164243
2.4641016151377544
2.774917217635375
3.1231056256176606
2.905124837953327
2.5355339059327378
2.2015621187164243
1.9154759474226504
1.6925824035672519
1.5495097567963922
1.5
1.5495097567963922
1.6925824035672519
1.9154759474226504
2.2015621187164243
2.5355339059327378
2.905124837953327
2.7416573867739413
2.3541019662496847
2
1.6925824035672519
1.4494897427831779
1.29128784747792
1.2360679774997898
1.29128784747792
1.4494897427831779
1.6925824035672519
2
2.3541019662496847
2.7416573867739413
2.640054944640259
2.24037034920393
1.8722813232690143
1.5495097567963922
1.29128784747792
1.1213203435596424
1.0615528128088303
1.1213203435596424
1.29128784747792
1.5495097567963922
1.8722813232690143
2.24037034920393
2.640054944640259
2.605551275463989
2.2015621187164243
1.8284271247461903
1.5
1.2360679774997898
1.0615528128088303
1
1.0615528128088303
1.2360679774997898
1.5
1.8284271247461903
2.2015621187164243
2.605551275463989
2.640054944640259
2.24037034920393
1.8722813232690143
1.5495097567963922
1.29128784747792
1.1213203435596424
1.0615528128088303
1.1213203435596424
1.29128784747792
1.5495097567963922
1.8722813232690143
2.24037034920393
2.640054944640259
2.7416573867739413
2.3541019662496847
2
1.6925824035672519
1.4494897427831779
1.29128784747792
1.2360679774997898
1.29128784747792
1.4494897427831779
1.6925824035672519
2
2.3541019662496847
2.7416573867739413
2.905124837953327
2.5355339059327378
2.2015621187164243
1.9154759474226504
1.6925824035672519
1.5495097567963922
1.5
1.5495097567963922
1.6925824035672519
1.9154759474226504
2.2015621187164243
2.5355339059327378
2.905124837953327
3.1231056256176606
2.774917217635375
2.4641016151377544
2.2015621187164243
2
1.8722813232690143
1.8284271247461903
1.8722813232690143
2
2.2015621187164243
2.4641016151377544
2.774917217635375
3.1231056256176606

