# vtk DataFile Version 4.1
Header:
ASCII

DATASET UNSTRUCTURED_GRID
POINTS 35 double
0 0 0
0 1.25 0
0 2.5 0
0 3.75 0
0 5 0
1.1666666666666667 0 0
1.1666666666666667 1.25 0
1.1666666666666667 2.5 0
1.1666666666666667 3.75 0
1.1666666666666667 5 0
2.3333333333333335 0 0
2.3333333333333335 1.25 0
2.3333333333333335 2.5 0
2.3333333333333335 3.75 0
2.3333333333333335 5 0
3.5 0 0
3.5 1.25 0
3.5 2.5 0
3.5 3.75 0
3.5 5 0
4.666666666666667 0 0
4.666666666666667 1.25 0
4.666666666666667 2.5 0
4.666666666666667 3.75 0
4.666666666666667 5 0
5.833333333333334 0 0
5.833333333333334 1.25 0
5.833333333333334 2.5 0
5.833333333333334 3.75 0
5.833333333333334 5 0
7 0 0
7 1.25 0
7 2.5 0
7 3.75 0
7 5 0

CELLS 24 120
4 0 5 6 1
4 1 6 7 2
4 2 7 8 3
4 3 8 9 4
4 5 10 11 6
4 6 11 12 7
4 7 12 13 8
4 8 13 14 9
4 10 15 16 11
4 11 16 17 12
4 12 17 18 13
4 13 18 19 14
4 15 20 21 16
4 16 21 22 17
4 17 22 23 18
4 18 23 24 19
4 20 25 26 21
4 21 26 27 22
4 22 27 28 23
4 23 28 29 24
4 25 30 31 26
4 26 31 32 27
4 27 32 33 28
4 28 33 34 29

CELL_TYPES 24
9
9
9
9
9
9
9
9
9
9
9
9
9
9
9
9
9
9
9
9
9
9
9
9


POINT_DATA 35
SCALARS level_set double 1
LOOKUP_TABLE default
2.3011626335213133
1.7165171868296265
1.5
1.7165171868296265
2.3011626335213133
1.419714088113865
0.6470633623780984
0.33333333333333304
0.6470633623780984
1.419714088113865
0.7588242262078082
-0.2901429559430675
-0.8333333333333335
-0.2901429559430675
0.7588242262078082
0.5
-0.75
-2
-0.75
0.5
0.7588242262078082
-0.29014295594306727
-0.833333333333333
-0.29014295594306727
0.7588242262078082
1.4197140881138655
0.6470633623780992
0.3333333333333339
0.6470633623780992
1.4197140881138655
2.3011626335213133
1.7165171868296265
1.5
1.7165171868296265
2.3011626335213133

