# vtk DataFile Version 4.1
Header:
ASCII

DATASET UNSTRUCTURED_GRID
POINTS 24 double
1.1666666666666667 0 0.0
2.3333333333333335 0 0.0
3.5 0 0.0
4.666666666666667 0 0.0
5.833333333333334 0 0.0
1.1666666666666667 1.25 0.0
2.3333333333333335 1.25 0.0
3.5 1.25 0.0
4.666666666666667 1.25 0.0
5.833333333333334 1.25 0.0
1.1666666666666667 2.5 0.0
2.3333333333333335 2.5 0.0
4.666666666666667 2.5 0.0
5.833333333333334 2.5 0.0
1.1666666666666667 3.75 0.0
2.3333333333333335 3.75 0.0
3.5 3.75 0.0
4.666666666666667 3.75 0.0
5.833333333333334 3.75 0.0
1.1666666666666667 5 0.0
2.3333333333333335 5 0.0
3.5 5 0.0
4.666666666666667 5 0.0
5.833333333333334 5 0.0


POINT_DATA 24
SCALARS enriched_nodes_heaviside double 1
LOOKUP_TABLE default
0
0
0
0
0
0
0
0
0
0
0
0
0
0
0
0
0
0
0
0
0
0
0
0

