# vtk DataFile Version 4.1
Header:
ASCII

DATASET UNSTRUCTURED_GRID
POINTS 117 double
0 0 0
0 0.625 0
0 1.25 0
0 1.875 0
0 2.5 0
0 3.125 0
0 3.75 0
0 4.375 0
0 5 0
0.5833333333333334 0 0
0.5833333333333334 0.625 0
0.5833333333333334 1.25 0
0.5833333333333334 1.875 0
0.5833333333333334 2.5 0
0.5833333333333334 3.125 0
0.5833333333333334 3.75 0
0.5833333333333334 4.375 0
0.5833333333333334 5 0
1.1666666666666667 0 0
1.1666666666666667 0.625 0
1.1666666666666667 1.25 0
1.1666666666666667 1.875 0
1.1666666666666667 2.5 0
1.1666666666666667 3.125 0
1.1666666666666667 3.75 0
1.1666666666666667 4.375 0
1.1666666666666667 5 0
1.75 0 0
1.75 0.625 0
1.75 1.25 0
1.75 1.875 0
1.75 2.5 0
1.75 3.125 0
1.75 3.75 0
1.75 4.375 0
1.75 5 0
2.3333333333333335 0 0
2.3333333333333335 0.625 0
2.3333333333333335 1.25 0
2.3333333333333335 1.875 0
2.3333333333333335 2.5 0
2.3333333333333335 3.125 0
2.3333333333333335 3.75 0
2.3333333333333335 4.375 0
2.3333333333333335 5 0
2.916666666666667 0 0
2.916666666666667 0.625 0
2.916666666666667 1.25 0
2.916666666666667 1.875 0
2.916666666666667 2.5 0
2.916666666666667 3.125 0
2.916666666666667 3.75 0
2.916666666666667 4.375 0
2.916666666666667 5 0
3.5 0 0
3.5 0.625 0
3.5 1.25 0
3.5 1.875 0
3.5 2.5 0
3.5 3.125 0
3.5 3.75 0
3.5 4.375 0
3.5 5 0
4.083333333333334 0 0
4.083333333333334 0.625 0
4.083333333333334 1.25 0
4.083333333333334 1.875 0
4.083333333333334 2.5 0
4.083333333333334 3.125 0
4.083333333333334 3.75 0
4.083333333333334 4.375 0
4.083333333333334 5 0
4.666666666666667 0 0
4.666666666666667 0.625 0
4.666666666666667 1.25 0
4.666666666666667 1.875 0
4.666666666666667 2.5 0
4.666666666666667 3.125 0
4.666666666666667 3.75 0
4.666666666666667 4.375 0
4.666666666666667 5 0
5.25 0 0
5.25 0.625 0
5.25 1.25 0
5.25 1.875 0
5.25 2.5 0
5.25 3.125 0
5.25 3.75 0
5.25 4.375 0
5.25 5 0
5.833333333333334 0 0
5.833333333333334 0.625 0
5.833333333333334 1.25 0
5.833333333333334 1.875 0
5.833333333333334 2.5 0
5.833333333333334 3.125 0
5.833333333333334 3.75 0
5.833333333333334 4.375 0
5.833333333333334 5 0
6.416666666666667 0 0
6.416666666666667 0.625 0
6.416666666666667 1.25 0
6.416666666666667 1.875 0
6.416666666666667 2.5 0
6.416666666666667 3.125 0
6.416666666666667 3.75 0
6.416666666666667 4.375 0
6.416666666666667 5 0
7 0 0
7 0.625 0
7 1.25 0
7 1.875 0
7 2.5 0
7 3.125 0
7 3.75 0
7 4.375 0
7 5 0

CELLS 192 768
3 0 9 1
3 10 1 9
3 1 10 2
3 11 2 10
3 2 11 3
3 12 3 11
3 3 12 4
3 13 4 12
3 4 13 5
3 14 5 13
3 5 14 6
3 15 6 14
3 6 15 7
3 16 7 15
3 7 16 8
3 17 8 16
3 9 18 10
3 19 10 18
3 10 19 11
3 20 11 19
3 11 20 12
3 21 12 20
3 12 21 13
3 22 13 21
3 13 22 14
3 23 14 22
3 14 23 15
3 24 15 23
3 15 24 16
3 25 16 24
3 16 25 17
3 26 17 25
3 18 27 19
3 28 19 27
3 19 28 20
3 29 20 28
3 20 29 21
3 30 21 29
3 21 30 22
3 31 22 30
3 22 31 23
3 32 23 31
3 23 32 24
3 33 24 32
3 24 33 25
3 34 25 33
3 25 34 26
3 35 26 34
3 27 36 28
3 37 28 36
3 28 37 29
3 38 29 37
3 29 38 30
3 39 30 38
3 30 39 31
3 40 31 39
3 31 40 32
3 41 32 40
3 32 41 33
3 42 33 41
3 33 42 34
3 43 34 42
3 34 43 35
3 44 35 43
3 36 45 37
3 46 37 45
3 37 46 38
3 47 38 46
3 38 47 39
3 48 39 47
3 39 48 40
3 49 40 48
3 40 49 41
3 50 41 49
3 41 50 42
3 51 42 50
3 42 51 43
3 52 43 51
3 43 52 44
3 53 44 52
3 45 54 46
3 55 46 54
3 46 55 47
3 56 47 55
3 47 56 48
3 57 48 56
3 48 57 49
3 58 49 57
3 49 58 50
3 59 50 58
3 50 59 51
3 60 51 59
3 51 60 52
3 61 52 60
3 52 61 53
3 62 53 61
3 54 63 55
3 64 55 63
3 55 64 56
3 65 56 64
3 56 65 57
3 66 57 65
3 57 66 58
3 67 58 66
3 58 67 59
3 68 59 67
3 59 68 60
3 69 60 68
3 60 69 61
3 70 61 69
3 61 70 62
3 71 62 70
3 63 72 64
3 73 64 72
3 64 73 65
3 74 65 73
3 65 74 66
3 75 66 74
3 66 75 67
3 76 67 75
3 67 76 68
3 77 68 76
3 68 77 69
3 78 69 77
3 69 78 70
3 79 70 78
3 70 79 71
3 80 71 79
3 72 81 73
3 82 73 81
3 73 82 74
3 83 74 82
3 74 83 75
3 84 75 83
3 75 84 76
3 85 76 84
3 76 85 77
3 86 77 85
3 77 86 78
3 87 78 86
3 78 87 79
3 88 79 87
3 79 88 80
3 89 80 88
3 81 90 82
3 91 82 90
3 82 91 83
3 92 83 91
3 83 92 84
3 93 84 92
3 84 93 85
3 94 85 93
3 85 94 86
3 95 86 94
3 86 95 87
3 96 87 95
3 87 96 88
3 97 88 96
3 88 97 89
3 98 89 97
3 90 99 91
3 100 91 99
3 91 100 92
3 101 92 100
3 92 101 93
3 102 93 101
3 93 102 94
3 103 94 102
3 94 103 95
3 104 95 103
3 95 104 96
3 105 96 104
3 96 105 97
3 106 97 105
3 97 106 98
3 107 98 106
3 99 108 100
3 109 100 108
3 100 109 101
3 110 101 109
3 101 110 102
3 111 102 110
3 102 111 103
3 112 103 111
3 103 112 104
3 113 104 112
3 104 113 105
3 114 105 113
3 105 114 106
3 115 106 114
3 106 115 107
3 116 107 115

CELL_TYPES 192
5
5
5
5
5
5
5
5
5
5
5
5
5
5
5
5
5
5
5
5
5
5
5
5
5
5
5
5
5
5
5
5
5
5
5
5
5
5
5
5
5
5
5
5
5
5
5
5
5
5
5
5
5
5
5
5
5
5
5
5
5
5
5
5
5
5
5
5
5
5
5
5
5
5
5
5
5
5
5
5
5
5
5
5
5
5
5
5
5
5
5
5
5
5
5
5
5
5
5
5
5
5
5
5
5
5
5
5
5
5
5
5
5
5
5
5
5
5
5
5
5
5
5
5
5
5
5
5
5
5
5
5
5
5
5
5
5
5
5
5
5
5
5
5
5
5
5
5
5
5
5
5
5
5
5
5
5
5
5
5
5
5
5
5
5
5
5
5
5
5
5
5
5
5
5
5
5
5
5
5
5
5
5
5
5
5
5
5
5
5
5
5


POINT_DATA 117
SCALARS level_set double 1
LOOKUP_TABLE default
2.3011626335213133
1.9705950435671475
1.7165171868296265
1.555365663331973
1.5
1.555365663331973
1.7165171868296265
1.9705950435671475
2.3011626335213133
1.8414768572053695
1.467357703561091
1.1732387941099613
0.9828793881825733
0.9166666666666665
0.9828793881825733
1.1732387941099613
1.467357703561091
1.8414768572053695
1.419714088113865
0.9933375092769681
0.6470633623780984
0.41558884010595687
0.33333333333333304
0.41558884010595687
0.6470633623780984
0.9933375092769681
1.419714088113865
1.0516389039334255
0.5647855660853991
0.15058131676065667
-0.14174140658518675
-0.25
-0.14174140658518675
0.15058131676065667
0.5647855660853991
1.0516389039334255
0.7588242262078082
0.20833333333333304
-0.2901429559430675
-0.6764683188109508
-0.8333333333333335
-0.6764683188109508
-0.2901429559430675
0.20833333333333304
0.7588242262078082
0.567153633458227
-0.036354722008636875
-0.6205878868960961
-1.1450714779715339
-1.416666666666667
-1.1450714779715339
-0.6205878868960961
-0.036354722008636875
0.567153633458227
0.5
-0.125
-0.75
-1.375
-2
-1.375
-0.75
-0.125
0.5
0.5671536334582274
-0.03635472200863665
-0.6205878868960957
-1.1450714779715332
-1.416666666666666
-1.1450714779715332
-0.6205878868960957
-0.03635472200863665
0.5671536334582274
0.7588242262078082
0.20833333333333348
-0.29014295594306727
-0.6764683188109504
-0.833333333333333
-0.6764683188109504
-0.29014295594306727
0.20833333333333348
0.7588242262078082
1.0516389039334255
0.5647855660853991
0.15058131676065667
-0.14174140658518675
-0.25
-0.14174140658518675
0.15058131676065667
0.5647855660853991
1.0516389039334255
1.4197140881138655
0.9933375092769685
0.6470633623780992
0.41558884010595776
0.3333333333333339
0.41558884010595776
0.6470633623780992
0.9933375092769685
1.4197140881138655
1.84147685720537
1.4673577035610914
1.1732387941099622
0.9828793881825737
0.916666666666667
0.9828793881825737
1.1732387941099622
1.4673577035610914
1.84147685720537
2.3011626335213133
1.9705950435671475
1.7165171868296265
1.555365663331973
1.5
1.555365663331973
1.7165171868296265
1.9705950435671475
2.3011626335213133

