# vtk DataFile Version 4.1
Header:
ASCII

DATASET UNSTRUCTURED_GRID
POINTS 312 double
0.24654567630605168 0.2641560817564839 0.0
0.9201209903606151 0.2641560817564839 0.0
0.24654567630605168 0.9858439182435161 0.0
0.9201209903606151 0.9858439182435161 0.0
1.330582853728973 1.0089578194715225 0.0
1.8223314149158816 0.9108312778860677 0.0
1.330582853728973 0.38395781947152263 0.0
1.8675740095007094 1.2172911528048478 0.0
1.9565792038588175 1.1191646112193925 0.0
1.464830642671909 1.2172911528048478 0.0
2.3028050759511913 0.3263330908972 0.0
2.211220303804767 0.8532065493117449 0.0
2.3028050759511913 0.7784589051742621 0.0
2.01677585936033 0.7024979445527302 0.0
2.1083606315067542 0.17562448613818518 0.0
1.5250272981734212 0.1756244861381851 0.0
2.151023648303254 1.1191646112193925 0.0
2.062018453945146 1.2172911528048478 0.0
2.2426084204496797 1.2172911528048478 0.0
2.3028050759511913 0.9867922385075961 0.0
2.211220303804767 1.0615398826450788 0.0
2.3028050759511913 1.159666424230534 0.0
2.9430882688923172 0.44497552619414465 0.0
3.2149387338897504 0.11124388154853782 0.0
2.631605400556417 0.11124388154853782 0.0
2.8550081381618235 0.8993960424456571 0.0
2.609585367873785 1.162349010611413 0.0
3.192918701207118 1.162349010611413 0.0
2.4151409234293477 1.1047242820371026 0.0
2.6605636937173864 0.8417713138713467 0.0
2.4151409234293477 0.9318500963141647 0.0
2.7643913164960225 0.5939732573275324 0.0
2.8304514145438833 0.565657870138895 0.0
2.518968546207983 0.2319262254932882 0.0
2.415140923429348 0.7235167629808366 0.0
2.660563693717387 0.6334379805380183 0.0
2.415140923429348 0.2713909487037741 0.0
3.4093831783341866 0.6529105482151978 0.0
3.1375327133367534 0.7366421928608047 0.0
3.4093831783341866 1.027910548215198 0.0
3.409383178334187 0.19457721488186785 0.0
3.1375327133367534 0.5283088595274748 0.0
3.409383178334187 0.44457721488186785 0.0
3.0248958589883195 0.7739912034722202 0.0
2.9588357609404587 0.8023065906608575 0.0
3.296746323985754 1.0652595588266136 0.0
4.056911731107695 0.44497552619414477 0.0
4.368394599443595 0.11124388154853782 0.0
3.7850612661102616 0.11124388154853782 0.0
3.9751041410116734 0.7739912034722254 0.0
3.7032536760142403 1.0652595588266187 0.0
4.041164239059535 0.8023065906608629 0.0
4.584859076570652 0.9318500963141616 0.0
4.339436306282614 0.8417713138713434 0.0
4.584859076570653 1.1047242820370993 0.0
3.5906168216658134 1.0279105482152056 0.0
3.8624672866632466 0.7366421928608122 0.0
3.590616821665813 0.6529105482152053 0.0
3.5906168216658134 0.4445772148818728 0.0
3.8624672866632466 0.5283088595274797 0.0
3.5906168216658134 0.1945772148818728 0.0
4.584859076570653 0.2713909487037653 0.0
4.339436306282614 0.6334379805380094 0.0
4.584859076570653 0.7235167629808277 0.0
4.235608683503984 0.5939732573275258 0.0
4.481031453792023 0.23192622549328168 0.0
4.169548585456123 0.5656578701388886 0.0
4.144991861838166 0.8993960424456573 0.0
3.8070812987928706 1.162349010611413 0.0
4.3904146321262045 1.162349010611413 0.0
4.983224140639681 0.7024979445527302 0.0
5.474972701826591 0.17562448613818518 0.0
4.891639368493258 0.17562448613818518 0.0
4.848976351696742 1.119164611219393 0.0
4.757391579550317 1.2172911528048478 0.0
4.93798154605485 1.2172911528048478 0.0
5.669417146271027 0.3839578194715103 0.0
5.177668585084119 0.9108312778860553 0.0
5.669417146271027 1.0089578194715103 0.0
5.132425990499301 1.2172911528048496 0.0
5.5351693573281 1.2172911528048496 0.0
5.043420796141193 1.1191646112193947 0.0
4.697194924048809 1.1596664242305375 0.0
4.788779696195234 1.0615398826450826 0.0
4.697194924048809 0.9867922385075997 0.0
4.697194924048809 0.7784589051742713 0.0
4.788779696195234 0.853206549311754 0.0
4.69719492404881 0.32633309089720897 0.0
6.079879009639385 0.2641560817564839 0.0
6.7534543236939495 0.2641560817564839 0.0
6.079879009639386 0.9858439182435161 0.0
6.753454323693949 0.9858439182435161 0.0
0.24654567630605168 1.514156081756484 0.0
0.9201209903606151 1.514156081756484 0.0
0.24654567630605168 2.235843918243516 0.0
0.9201209903606151 2.235843918243516 0.0
1.6694315834255695 1.6448397798028211 0.0
1.7957871043923963 1.348709944950707 0.0
1.393043737563596 1.3487099449507067 0.0
2.2310181708428787 1.557043278284032 0.0
1.9240726833715183 1.8531731131361464 0.0
2.231018170842878 2.182043278284032 0.0
1.7678682235426502 2.1237126176328682 0.0
1.6711337225523257 2.405928154408216 0.0
2.0878003892189922 2.405928154408216 0.0
1.60999750549665 1.8057558959169122 0.0
1.6229841837016319 1.7591012675443742 0.0
1.3465963378396586 1.46297143269226 0.0
1.2544670558856654 2.1975948210748903 0.0
1.5178682235426566 1.9153792842995427 0.0
1.2544670558856654 1.5725948210748908 0.0
1.817428628146069 1.9674346008776995 0.0
1.8044419499410864 2.0140892292502373 0.0
2.124374115617429 2.296304766025585 0.0
1.9902315488368332 1.3487099449507067 0.0
1.8638760278700064 1.6448397798028216 0.0
2.170821515341366 1.348709944950707 0.0
1.4766892781078886 2.4059281544082154 0.0
1.573423779098213 2.1237126176328682 0.0
1.3100226114412221 2.4059281544082154 0.0
2.5798790096393853 1.514156081756484 0.0
3.2534543236939486 1.514156081756484 0.0
2.5798790096393853 2.235843918243516 0.0
3.2534543236939486 2.235843918243516 0.0
3.746545676306052 1.514156081756484 0.0
4.420120990360616 1.514156081756484 0.0
3.746545676306052 2.235843918243516 0.0
4.420120990360616 2.235843918243516 0.0
4.768981829157122 2.182043278284044 0.0
5.075927316628482 1.8531731131361593 0.0
4.768981829157122 1.5570432782840444 0.0
5.182571371853925 1.9674346008777053 0.0
4.875625884382566 2.2963047660255906 0.0
5.195558050058907 2.0140892292502426 0.0
5.523310721892116 2.405928154408221 0.0
5.689977388558782 2.4059281544082207 0.0
5.426576220901792 2.123712617632873 0.0
5.330568416574439 1.644839779802822 0.0
5.606956262436414 1.3487099449507067 0.0
5.204212895607612 1.348709944950707 0.0
5.232131776457341 2.123712617632867 0.0
4.912199610780999 2.4059281544082154 0.0
5.328866277447666 2.4059281544082154 0.0
5.009768451163161 1.348709944950701 0.0
4.829178484658629 1.3487099449507012 0.0
5.136123972129988 1.6448397798028158 0.0
5.745532944114334 1.5725948210748777 0.0
5.482131776457344 1.9153792842995299 0.0
5.745532944114335 2.197594821074878 0.0
5.390002494503356 1.805755895916906 0.0
5.653403662160349 1.4629714326922543 0.0
5.377015816298373 1.7591012675443687 0.0
6.079879009639385 1.514156081756484 0.0
6.7534543236939495 1.514156081756484 0.0
6.079879009639386 2.235843918243516 0.0
6.753454323693949 2.235843918243516 0.0
0.24654567630605168 2.764156081756484 0.0
0.9201209903606151 2.764156081756484 0.0
0.24654567630605168 3.485843918243516 0.0
0.9201209903606151 3.485843918243516 0.0
1.8174286281460754 3.0325653991222947 0.0
2.124374115617435 2.7036952339744094 0.0
1.804441949941093 2.9859107707497574 0.0
2.2310181708428787 2.817956721715956 0.0
1.9240726833715185 3.146826886863841 0.0
2.2310181708428782 3.4429567217159556 0.0
1.7678682235426584 2.8762873823671318 0.0
2.0878003892190002 2.594071845591784 0.0
1.6711337225523335 2.5940718455917846 0.0
1.990231548836839 3.6512900550492993 0.0
2.170821515341372 3.6512900550492993 0.0
1.8638760278700124 3.3551602201971846 0.0
1.4766892781078835 2.594071845591779 0.0
1.310022611441217 2.5940718455917784 0.0
1.573423779098208 2.8762873823671264 0.0
1.6694315834255615 3.3551602201971784 0.0
1.393043737563588 3.651290055049293 0.0
1.7957871043923885 3.6512900550492935 0.0
1.6099975054966442 3.194244104083094 0.0
1.346596337839653 3.537028567307746 0.0
1.6229841837016266 3.2408987324556318 0.0
1.2544670558856654 3.4274051789251216 0.0
1.5178682235426568 3.0846207157004697 0.0
1.2544670558856654 2.802405178925122 0.0
2.5798790096393853 2.764156081756484 0.0
3.2534543236939486 2.764156081756484 0.0
2.5798790096393853 3.485843918243516 0.0
3.2534543236939486 3.485843918243516 0.0
3.746545676306052 2.764156081756484 0.0
4.420120990360616 2.764156081756484 0.0
3.746545676306052 3.485843918243516 0.0
4.420120990360616 3.485843918243516 0.0
4.768981829157122 3.4429567217159684 0.0
5.075927316628483 3.1468268868638534 0.0
4.768981829157122 2.817956721715968 0.0
5.182571371853931 3.0325653991223005 0.0
5.195558050058913 2.985910770749763 0.0
4.875625884382571 2.7036952339744147 0.0
5.330568416574431 3.3551602201971784 0.0
5.204212895607604 3.651290055049293 0.0
5.606956262436405 3.6512900550492935 0.0
5.0097684511631675 3.651290055049293 0.0
5.136123972129995 3.3551602201971784 0.0
4.829178484658634 3.651290055049293 0.0
5.745532944114334 2.802405178925109 0.0
5.482131776457344 3.0846207157004577 0.0
5.745532944114336 3.4274051789251097 0.0
5.390002494503349 3.1942441040830882 0.0
5.377015816298368 3.2408987324556255 0.0
5.653403662160342 3.537028567307741 0.0
5.523310721892111 2.5940718455917846 0.0
5.4265762209017865 2.876287382367133 0.0
5.689977388558777 2.5940718455917846 0.0
5.232131776457349 2.8762873823671327 0.0
5.328866277447673 2.5940718455917837 0.0
4.912199610781006 2.5940718455917846 0.0
6.079879009639385 2.764156081756484 0.0
6.7534543236939495 2.764156081756484 0.0
6.079879009639386 3.485843918243516 0.0
6.753454323693949 3.485843918243516 0.0
0.24654567630605168 4.014156081756484 0.0
0.9201209903606151 4.014156081756484 0.0
0.24654567630605168 4.735843918243516 0.0
0.9201209903606151 4.735843918243516 0.0
1.330582853728973 4.61604218052849 0.0
1.8223314149158818 4.089168722113945 0.0
1.3305828537289728 3.9910421805284892 0.0
1.8675740095006994 3.782708847195151 0.0
1.4648306426718993 3.7827088471951504 0.0
1.9565792038588081 3.8808353887806053 0.0
2.3028050759511913 3.840333575769462 0.0
2.2112203038047666 3.9384601173549174 0.0
2.3028050759511913 4.0132077614924 0.0
2.0167758593603184 4.2975020554472705 0.0
1.5250272981734097 4.824375513861815 0.0
2.1083606315067427 4.824375513861814 0.0
2.1510236483032577 3.880835388780607 0.0
2.242608420449683 3.7827088471951518 0.0
2.0620184539451496 3.7827088471951527 0.0
2.3028050759511913 4.22154109482573 0.0
2.2112203038047666 4.1467934506882465 0.0
2.3028050759511913 4.673666909102791 0.0
3.409383178334187 3.9720894517847953 0.0
3.1375327133367534 4.263357807139188 0.0
3.409383178334187 4.347089451784795 0.0
2.415140923429348 4.728609051296234 0.0
2.660563693717387 4.36656201946199 0.0
2.415140923429348 4.276483237019172 0.0
2.9430882688923052 4.555024473805855 0.0
2.6316054005564053 4.888756118451463 0.0
3.214938733889739 4.888756118451463 0.0
3.0248958589883266 4.226008796527775 0.0
3.29674632398576 3.9347404411733815 0.0
2.958835760940466 4.197693409339138 0.0
2.855008138161835 4.100603957554343 0.0
3.1929187012071294 3.8376509893885866 0.0
2.6095853678737964 3.837650989388587 0.0
2.764391316496016 4.4060267426724735 0.0
2.518968546207977 4.768073774506718 0.0
2.8304514145438766 4.434342129861111 0.0
2.4151409234293477 4.068149903685838 0.0
2.6605636937173873 4.158228686128657 0.0
2.415140923429348 3.8952757179629005 0.0
3.4093831783341875 4.555422785118127 0.0
3.137532713336754 4.4716911404725215 0.0
3.4093831783341866 4.805422785118127 0.0
4.584859076570653 4.276483237019163 0.0
4.339436306282614 4.366562019461981 0.0
4.584859076570652 4.7286090512962256 0.0
4.584859076570652 3.8952757179628974 0.0
4.3394363062826145 4.158228686128654 0.0
4.584859076570653 4.0681499036858355 0.0
4.056911731107683 4.555024473805855 0.0
3.78506126611025 4.888756118451462 0.0
4.368394599443583 4.888756118451463 0.0
4.144991861838177 4.100603957554343 0.0
4.390414632126216 3.8376509893885866 0.0
3.807081298792882 3.837650989388587 0.0
3.9751041410116805 4.226008796527781 0.0
4.041164239059541 4.197693409339142 0.0
3.7032536760142465 3.9347404411733864 0.0
4.235608683503978 4.406026742672468 0.0
4.169548585456117 4.434342129861105 0.0
4.481031453792018 4.768073774506712 0.0
3.590616821665813 4.805422785118132 0.0
3.8624672866632466 4.471691140472525 0.0
3.590616821665813 4.555422785118132 0.0
3.5906168216658125 4.347089451784802 0.0
3.8624672866632466 4.263357807139195 0.0
3.5906168216658134 3.972089451784802 0.0
4.848976351696747 3.880835388780608 0.0
4.937981546054854 3.782708847195152 0.0
4.757391579550322 3.7827088471951518 0.0
4.9832241406396705 4.29750205544727 0.0
4.891639368493246 4.824375513861815 0.0
5.47497270182658 4.824375513861815 0.0
5.669417146271028 3.9910421805284773 0.0
5.177668585084119 4.089168722113933 0.0
5.669417146271028 4.616042180528477 0.0
5.13242599049929 3.7827088471951527 0.0
5.0434207961411825 3.880835388780607 0.0
5.535169357328092 3.7827088471951527 0.0
4.697194924048809 4.673666909102799 0.0
4.788779696195234 4.146793450688255 0.0
4.697194924048809 4.221541094825738 0.0
4.69719492404881 4.013207761492405 0.0
4.788779696195234 3.9384601173549214 0.0
4.697194924048809 3.8403335757694665 0.0
6.079879009639385 4.014156081756484 0.0
6.7534543236939495 4.014156081756484 0.0
6.079879009639386 4.735843918243516 0.0
6.753454323693949 4.735843918243516 0.0


POINT_DATA 312
SCALARS element_ids double 1
LOOKUP_TABLE default
0
0
0
0
1
1
1
1
1
1
1
1
1
1
1
1
1
1
1
1
1
1
2
2
2
2
2
2
2
2
2
2
2
2
2
2
2
2
2
2
2
2
2
2
2
2
3
3
3
3
3
3
3
3
3
3
3
3
3
3
3
3
3
3
3
3
3
3
3
3
4
4
4
4
4
4
4
4
4
4
4
4
4
4
4
4
4
4
5
5
5
5
6
6
6
6
7
7
7
7
7
7
7
7
7
7
7
7
7
7
7
7
7
7
7
7
7
7
7
7
8
8
8
8
9
9
9
9
10
10
10
10
10
10
10
10
10
10
10
10
10
10
10
10
10
10
10
10
10
10
10
10
11
11
11
11
12
12
12
12
13
13
13
13
13
13
13
13
13
13
13
13
13
13
13
13
13
13
13
13
13
13
13
13
14
14
14
14
15
15
15
15
16
16
16
16
16
16
16
16
16
16
16
16
16
16
16
16
16
16
16
16
16
16
16
16
17
17
17
17
18
18
18
18
19
19
19
19
19
19
19
19
19
19
19
19
19
19
19
19
19
19
20
20
20
20
20
20
20
20
20
20
20
20
20
20
20
20
20
20
20
20
20
20
20
20
21
21
21
21
21
21
21
21
21
21
21
21
21
21
21
21
21
21
21
21
21
21
21
21
22
22
22
22
22
22
22
22
22
22
22
22
22
22
22
22
22
22
23
23
23
23

