# vtk DataFile Version 4.1
Header:
ASCII

DATASET UNSTRUCTURED_GRID
POINTS 64 double
2.294625054039318 0.9358437002275412 0.0
2.1888720683344998 1.0221548451556732 0.0
2.1125457676043045 1.0952200732155357 0.0
2.0097714217604468 1.2085268436135546 0.0
3.3851024741481597 0.5353891570697756 0.0
3.071196595856973 0.632074132221438 0.0
2.928378787347898 0.6794307800642827 0.0
2.8520991565666467 0.7121265728954191 0.0
2.7204510061124347 0.7621658368196715 0.0
2.4370612011303097 0.8661798554029412 0.0
4.562938798869691 0.8661798554029413 0.0
4.279548993887565 0.7621658368196718 0.0
4.147900843433353 0.7121265728954194 0.0
4.0716212126521025 0.6794307800642829 0.0
3.9288034041430264 0.632074132221438 0.0
3.6148975258518403 0.5353891570697756 0.0
4.990228578239553 1.2085268436135546 0.0
4.887454232395696 1.0952200732155357 0.0
4.8111279316655 1.0221548451556735 0.0
4.705374945960683 0.9358437002275414 0.0
1.9187492734012335 1.375159194985167 0.0
1.7728464853136479 1.7171004747190624 0.0
1.6525841911770125 2.0548472470979107 0.0
1.5408848108036364 2.380721679351394 0.0
1.713953542343157 1.86197823582694 0.0
1.6989578180281057 1.9158503603265937 0.0
5.227153514686352 1.7171004747190626 0.0
5.081250726598767 1.375159194985167 0.0
5.3010421819718925 1.9158503603265926 0.0
5.286046457656843 1.8619782358269406 0.0
5.459115189196364 2.380721679351394 0.0
5.347415808822986 2.05484724709791 0.0
1.5408848108036364 2.6192783206486063 0.0
1.6525841911770125 2.9451527529020893 0.0
1.7728464853136479 3.2828995252809383 0.0
1.9187492734012332 3.6248408050148333 0.0
1.6989578180281057 3.0841496396734067 0.0
1.713953542343157 3.1380217641730592 0.0
5.347415808822987 2.94515275290209 0.0
5.459115189196363 2.6192783206486063 0.0
5.286046457656844 3.13802176417306 0.0
5.301042181971893 3.0841496396734067 0.0
5.081250726598767 3.6248408050148333 0.0
5.227153514686352 3.2828995252809374 0.0
2.009771421760447 3.7914731563864454 0.0
2.112545767604305 3.9047799267844647 0.0
2.1888720683344998 3.9778451548443265 0.0
2.294625054039318 4.064156299772459 0.0
2.8520991565666463 4.28787342710458 0.0
2.928378787347898 4.3205692199357175 0.0
3.0711965958569736 4.367925867778562 0.0
3.3851024741481597 4.464610842930224 0.0
2.4370612011303097 4.133820144597059 0.0
2.720451006112435 4.237834163180328 0.0
4.0716212126521025 4.3205692199357175 0.0
4.147900843433354 4.28787342710458 0.0
4.279548993887565 4.237834163180328 0.0
4.562938798869691 4.133820144597059 0.0
3.6148975258518403 4.464610842930225 0.0
3.928803404143027 4.3679258677785615 0.0
4.887454232395696 3.9047799267844647 0.0
4.990228578239554 3.7914731563864454 0.0
4.705374945960683 4.064156299772458 0.0
4.811127931665499 3.977845154844326 0.0


POINT_DATA 64
SCALARS element_ids double 1
LOOKUP_TABLE default
1
1
1
1
2
2
2
2
2
2
3
3
3
3
3
3
4
4
4
4
7
7
7
7
7
7
10
10
10
10
10
10
13
13
13
13
13
13
16
16
16
16
16
16
19
19
19
19
20
20
20
20
20
20
21
21
21
21
21
21
22
22
22
22

