# vtk DataFile Version 4.1
Header:
ASCII

DATASET UNSTRUCTURED_GRID
POINTS 64 double
2.294625054039318 0.9358437002275412 0.0
2.1888720683344998 1.0221548451556732 0.0
2.1125457676043045 1.0952200732155357 0.0
2.0097714217604468 1.2085268436135546 0.0
3.3851024741481597 0.5353891570697756 0.0
3.071196595856973 0.632074132221438 0.0
2.928378787347898 0.6794307800642827 0.0
2.8520991565666467 0.7121265728954191 0.0
2.7204510061124347 0.7621658368196715 0.0
2.4370612011303097 0.8661798554029412 0.0
4.562938798869691 0.8661798554029413 0.0
4.279548993887565 0.7621658368196718 0.0
4.147900843433353 0.7121265728954194 0.0
4.0716212126521025 0.6794307800642829 0.0
3.9288034041430264 0.632074132221438 0.0
3.6148975258518403 0.5353891570697756 0.0
4.990228578239553 1.2085268436135546 0.0
4.887454232395696 1.0952200732155357 0.0
4.8111279316655 1.0221548451556735 0.0
4.705374945960683 0.9358437002275414 0.0
1.9187492734012335 1.375159194985167 0.0
1.7728464853136479 1.7171004747190624 0.0
1.6525841911770125 2.0548472470979107 0.0
1.5408848108036364 2.380721679351394 0.0
1.713953542343157 1.86197823582694 0.0
1.6989578180281057 1.9158503603265937 0.0
5.227153514686352 1.7171004747190626 0.0
5.081250726598767 1.375159194985167 0.0
5.3010421819718925 1.9158503603265926 0.0
5.286046457656843 1.8619782358269406 0.0
5.459115189196364 2.380721679351394 0.0
5.347415808822986 2.05484724709791 0.0
1.5408848108036364 2.6192783206486063 0.0
1.6525841911770125 2.9451527529020893 0.0
1.7728464853136479 3.2828995252809383 0.0
1.9187492734012332 3.6248408050148333 0.0
1.6989578180281057 3.0841496396734067 0.0
1.713953542343157 3.1380217641730592 0.0
5.347415808822987 2.94515275290209 0.0
5.459115189196363 2.6192783206486063 0.0
5.286046457656844 3.13802176417306 0.0
5.301042181971893 3.0841496396734067 0.0
5.081250726598767 3.6248408050148333 0.0
5.227153514686352 3.2828995252809374 0.0
2.009771421760447 3.7914731563864454 0.0
2.112545767604305 3.9047799267844647 0.0
2.1888720683344998 3.9778451548443265 0.0
2.294625054039318 4.064156299772459 0.0
2.8520991565666463 4.28787342710458 0.0
2.928378787347898 4.3205692199357175 0.0
3.0711965958569736 4.367925867778562 0.0
3.3851024741481597 4.464610842930224 0.0
2.4370612011303097 4.133820144597059 0.0
2.720451006112435 4.237834163180328 0.0
4.0716212126521025 4.3205692199357175 0.0
4.147900843433354 4.28787342710458 0.0
4.279548993887565 4.237834163180328 0.0
4.562938798869691 4.133820144597059 0.0
3.6148975258518403 4.464610842930225 0.0
3.928803404143027 4.3679258677785615 0.0
4.887454232395696 3.9047799267844647 0.0
4.990228578239554 3.7914731563864454 0.0
4.705374945960683 4.064156299772458 0.0
4.811127931665499 3.977845154844326 0.0


POINT_DATA 64
VECTORS normal_vectors double
-0.6322981330161049 -0.774725158352527 0.0
-0.6322981330161049 -0.774725158352527 0.0
-0.7406938554497975 -0.6718426992227529 0.0
-0.7406938554497975 -0.6718426992227529 0.0
-0.2943599285076693 -0.9556946334938582 0.0
-0.2943599285076693 -0.9556946334938582 0.0
-0.3939653356607316 -0.9191252984755274 0.0
-0.3939653356607316 -0.9191252984755274 0.0
-0.34455955184576914 -0.9387644620626852 0.0
-0.34455955184576914 -0.9387644620626852 0.0
0.34455955184576936 -0.9387644620626852 0.0
0.34455955184576936 -0.9387644620626852 0.0
0.39396533566072917 -0.9191252984755284 0.0
0.39396533566072917 -0.9191252984755284 0.0
0.2943599285076698 -0.955694633493858 0.0
0.2943599285076698 -0.955694633493858 0.0
0.7406938554497984 -0.6718426992227521 0.0
0.7406938554497984 -0.6718426992227521 0.0
0.6322981330161044 -0.7747251583525274 0.0
0.6322981330161044 -0.7747251583525274 0.0
-0.9197705538971522 -0.3924565303109707 0.0
-0.9197705538971522 -0.3924565303109707 0.0
-0.9459717666076941 -0.32424900428701153 0.0
-0.9459717666076941 -0.32424900428701153 0.0
-0.9633736805175371 -0.2681625471353044 0.0
-0.9633736805175371 -0.2681625471353044 0.0
0.9197705538971525 -0.39245653031097005 0.0
0.9197705538971525 -0.39245653031097005 0.0
0.9633736805175376 -0.26816254713530274 0.0
0.9633736805175376 -0.26816254713530274 0.0
0.9459717666076939 -0.32424900428701225 0.0
0.9459717666076939 -0.32424900428701225 0.0
-0.9459717666076941 0.32424900428701153 0.0
-0.9459717666076941 0.32424900428701153 0.0
-0.9197705538971522 0.39245653031097044 0.0
-0.9197705538971522 0.39245653031097044 0.0
-0.9633736805175367 0.2681625471353055 0.0
-0.9633736805175367 0.2681625471353055 0.0
0.9459717666076939 0.32424900428701214 0.0
0.9459717666076939 0.32424900428701214 0.0
0.9633736805175349 0.26816254713531246 0.0
0.9633736805175349 0.26816254713531246 0.0
0.9197705538971529 0.3924565303109687 0.0
0.9197705538971529 0.3924565303109687 0.0
-0.740693855449798 0.6718426992227526 0.0
-0.740693855449798 0.6718426992227526 0.0
-0.6322981330161038 0.7747251583525279 0.0
-0.6322981330161038 0.7747251583525279 0.0
-0.39396533566073094 0.9191252984755276 0.0
-0.39396533566073094 0.9191252984755276 0.0
-0.29435992850766945 0.9556946334938582 0.0
-0.29435992850766945 0.9556946334938582 0.0
-0.3445595518457696 0.9387644620626852 0.0
-0.3445595518457696 0.9387644620626852 0.0
0.39396533566073494 0.9191252984755257 0.0
0.39396533566073494 0.9191252984755257 0.0
0.3445595518457696 0.9387644620626852 0.0
0.3445595518457696 0.9387644620626852 0.0
0.294359928507668 0.9556946334938585 0.0
0.294359928507668 0.9556946334938585 0.0
0.7406938554497988 0.6718426992227516 0.0
0.7406938554497988 0.6718426992227516 0.0
0.6322981330161038 0.7747251583525279 0.0
0.6322981330161038 0.7747251583525279 0.0

