# vtk DataFile Version 4.1
Header:
ASCII

DATASET UNSTRUCTURED_GRID
POINTS 44 double
2.3333333333333335 0.9042516285541244 0
2.150163789040484 1.05374691682909 0
1.9721534003242676 1.25 0
3.5 0.5 0
2.956299070005133 0.6674632892912137 0
2.824178873909411 0.7240940636684883 0
2.3333333333333335 0.9042516285541244 0
4.666666666666667 0.9042516285541247 0
4.1758211260905895 0.7240940636684884 0
4.043700929994867 0.667463289291214 0
3.5 0.5 0
5.027846599675732 1.25 0
4.849836210959516 1.05374691682909 0
4.666666666666667 0.9042516285541247 0
1.7194423583906138 1.8422596697042288 0
1.9721534003242676 1.25 0
1.5 2.5 0
1.6934690019806489 1.9355689264493048 0
5.027846599675732 1.25 0
5.280557641609386 1.8422596697042295 0
5.30653099801935 1.9355689264493037 0
5.5 2.5 0
1.6934690019806489 3.064431073550695 0
1.5 2.5 0
1.9721534003242676 3.75 0
1.7194423583906138 3.1577403302957707 0
5.5 2.5 0
5.30653099801935 3.0644310735506965 0
5.280557641609385 3.1577403302957703 0
5.027846599675732 3.75 0
1.9721534003242676 3.75 0
2.150163789040484 3.94625308317091 0
2.3333333333333335 4.095748371445875 0
2.824178873909411 4.275905936331512 0
2.956299070005133 4.332536710708786 0
3.5 4.5 0
2.3333333333333335 4.095748371445875 0
4.043700929994867 4.332536710708787 0
4.1758211260905895 4.275905936331512 0
4.666666666666667 4.095748371445875 0
3.5 4.5 0
4.849836210959516 3.94625308317091 0
5.027846599675732 3.75 0
4.666666666666667 4.095748371445875 0

CELLS 32 96
2 0 1
2 1 2
2 3 4
2 4 5
2 5 6
2 7 8
2 8 9
2 9 10
2 11 12
2 12 13
2 15 14
2 17 16
2 14 17
2 19 18
2 20 19
2 21 20
2 23 22
2 25 24
2 22 25
2 27 26
2 28 27
2 29 28
2 30 31
2 31 32
2 33 34
2 34 35
2 36 33
2 37 38
2 38 39
2 40 37
2 41 42
2 43 41

CELL_TYPES 32
3
3
3
3
3
3
3
3
3
3
3
3
3
3
3
3
3
3
3
3
3
3
3
3
3
3
3
3
3
3
3
3


POINT_DATA 44
SCALARS elementID double 1
LOOKUP_TABLE default
1
1
1
2
2
2
2
3
3
3
3
4
4
4
7
7
7
7
10
10
10
10
13
13
13
13
16
16
16
16
19
19
19
20
20
20
20
21
21
21
21
22
22
22

SCALARS lsm_geometryID double 1
LOOKUP_TABLE default
0
0
0
0
0
0
0
0
0
0
0
0
0
0
0
0
0
0
0
0
0
0
0
0
0
0
0
0
0
0
0
0
0
0
0
0
0
0
0
0
0
0
0
0

