# vtk DataFile Version 4.1
Header:
ASCII

DATASET UNSTRUCTURED_GRID
POINTS 35 double
0 0 0.0
1.1666666666666667 0 0.0
2.3333333333333335 0 0.0
3.5 0 0.0
4.666666666666667 0 0.0
5.833333333333334 0 0.0
7 0 0.0
0 1.25 0.0
1.1666666666666667 1.25 0.0
2.3333333333333335 1.25 0.0
3.5 1.25 0.0
4.666666666666667 1.25 0.0
5.833333333333334 1.25 0.0
7 1.25 0.0
0 2.5 0.0
1.1666666666666667 2.5 0.0
2.3333333333333335 2.5 0.0
3.5 2.5 0.0
4.666666666666667 2.5 0.0
5.833333333333334 2.5 0.0
7 2.5 0.0
0 3.75 0.0
1.1666666666666667 3.75 0.0
2.3333333333333335 3.75 0.0
3.5 3.75 0.0
4.666666666666667 3.75 0.0
5.833333333333334 3.75 0.0
7 3.75 0.0
0 5 0.0
1.1666666666666667 5 0.0
2.3333333333333335 5 0.0
3.5 5 0.0
4.666666666666667 5 0.0
5.833333333333334 5 0.0
7 5 0.0


POINT_DATA 35
SCALARS nodal_phases double 1
LOOKUP_TABLE default
0
0
0
0
0
0
0
0
0
1
1
1
0
0
0
0
1
1
1
0
0
0
0
1
1
1
0
0
0
0
0
0
0
0
0

