# vtk DataFile Version 4.1
Header:
ASCII

DATASET UNSTRUCTURED_GRID
POINTS 117 double
0 0 0.0
0 0.625 0.0
0 1.25 0.0
0 1.875 0.0
0 2.5 0.0
0 3.125 0.0
0 3.75 0.0
0 4.375 0.0
0 5 0.0
0.5833333333333334 0 0.0
0.5833333333333334 0.625 0.0
0.5833333333333334 1.25 0.0
0.5833333333333334 1.875 0.0
0.5833333333333334 2.5 0.0
0.5833333333333334 3.125 0.0
0.5833333333333334 3.75 0.0
0.5833333333333334 4.375 0.0
0.5833333333333334 5 0.0
1.1666666666666667 0 0.0
1.1666666666666667 0.625 0.0
1.1666666666666667 1.25 0.0
1.1666666666666667 1.875 0.0
1.1666666666666667 2.5 0.0
1.1666666666666667 3.125 0.0
1.1666666666666667 3.75 0.0
1.1666666666666667 4.375 0.0
1.1666666666666667 5 0.0
1.75 0 0.0
1.75 0.625 0.0
1.75 1.25 0.0
1.75 1.875 0.0
1.75 2.5 0.0
1.75 3.125 0.0
1.75 3.75 0.0
1.75 4.375 0.0
1.75 5 0.0
2.3333333333333335 0 0.0
2.3333333333333335 0.625 0.0
2.3333333333333335 1.25 0.0
2.3333333333333335 1.875 0.0
2.3333333333333335 2.5 0.0
2.3333333333333335 3.125 0.0
2.3333333333333335 3.75 0.0
2.3333333333333335 4.375 0.0
2.3333333333333335 5 0.0
2.916666666666667 0 0.0
2.916666666666667 0.625 0.0
2.916666666666667 1.25 0.0
2.916666666666667 1.875 0.0
2.916666666666667 2.5 0.0
2.916666666666667 3.125 0.0
2.916666666666667 3.75 0.0
2.916666666666667 4.375 0.0
2.916666666666667 5 0.0
3.5 0 0.0
3.5 0.625 0.0
3.5 1.25 0.0
3.5 1.875 0.0
3.5 2.5 0.0
3.5 3.125 0.0
3.5 3.75 0.0
3.5 4.375 0.0
3.5 5 0.0
4.083333333333334 0 0.0
4.083333333333334 0.625 0.0
4.083333333333334 1.25 0.0
4.083333333333334 1.875 0.0
4.083333333333334 2.5 0.0
4.083333333333334 3.125 0.0
4.083333333333334 3.75 0.0
4.083333333333334 4.375 0.0
4.083333333333334 5 0.0
4.666666666666667 0 0.0
4.666666666666667 0.625 0.0
4.666666666666667 1.25 0.0
4.666666666666667 1.875 0.0
4.666666666666667 2.5 0.0
4.666666666666667 3.125 0.0
4.666666666666667 3.75 0.0
4.666666666666667 4.375 0.0
4.666666666666667 5 0.0
5.25 0 0.0
5.25 0.625 0.0
5.25 1.25 0.0
5.25 1.875 0.0
5.25 2.5 0.0
5.25 3.125 0.0
5.25 3.75 0.0
5.25 4.375 0.0
5.25 5 0.0
5.833333333333334 0 0.0
5.833333333333334 0.625 0.0
5.833333333333334 1.25 0.0
5.833333333333334 1.875 0.0
5.833333333333334 2.5 0.0
5.833333333333334 3.125 0.0
5.833333333333334 3.75 0.0
5.833333333333334 4.375 0.0
5.833333333333334 5 0.0
6.416666666666667 0 0.0
6.416666666666667 0.625 0.0
6.416666666666667 1.25 0.0
6.416666666666667 1.875 0.0
6.416666666666667 2.5 0.0
6.416666666666667 3.125 0.0
6.416666666666667 3.75 0.0
6.416666666666667 4.375 0.0
6.416666666666667 5 0.0
7 0 0.0
7 0.625 0.0
7 1.25 0.0
7 1.875 0.0
7 2.5 0.0
7 3.125 0.0
7 3.75 0.0
7 4.375 0.0
7 5 0.0


POINT_DATA 117
SCALARS level_set double 1
LOOKUP_TABLE default
2.3011626335213133
1.9705950435671475
1.7165171868296265
1.555365663331973
1.5
1.555365663331973
1.7165171868296265
1.9705950435671475
2.3011626335213133
1.8414768572053695
1.467357703561091
1.1732387941099613
0.9828793881825733
0.9166666666666665
0.9828793881825733
1.1732387941099613
1.467357703561091
1.8414768572053695
1.419714088113865
0.9933375092769681
0.6470633623780984
0.41558884010595687
0.33333333333333304
0.41558884010595687
0.6470633623780984
0.9933375092769681
1.419714088113865
1.0516389039334255
0.5647855660853991
0.15058131676065667
-0.14174140658518675
-0.25
-0.14174140658518675
0.15058131676065667
0.5647855660853991
1.0516389039334255
0.7588242262078082
0.20833333333333304
-0.2901429559430675
-0.6764683188109508
-0.8333333333333335
-0.6764683188109508
-0.2901429559430675
0.20833333333333304
0.7588242262078082
0.567153633458227
-0.036354722008636875
-0.6205878868960961
-1.1450714779715339
-1.416666666666667
-1.1450714779715339
-0.6205878868960961
-0.036354722008636875
0.567153633458227
0.5
-0.125
-0.75
-1.375
-2
-1.375
-0.75
-0.125
0.5
0.5671536334582274
-0.03635472200863665
-0.6205878868960957
-1.1450714779715332
-1.416666666666666
-1.1450714779715332
-0.6205878868960957
-0.03635472200863665
0.5671536334582274
0.7588242262078082
0.20833333333333348
-0.29014295594306727
-0.6764683188109504
-0.833333333333333
-0.6764683188109504
-0.29014295594306727
0.20833333333333348
0.7588242262078082
1.0516389039334255
0.5647855660853991
0.15058131676065667
-0.14174140658518675
-0.25
-0.14174140658518675
0.15058131676065667
0.5647855660853991
1.0516389039334255
1.4197140881138655
0.9933375092769685
0.6470633623780992
0.41558884010595776
0.3333333333333339
0.41558884010595776
0.6470633623780992
0.9933375092769685
1.4197140881138655
1.84147685720537
1.4673577035610914
1.1732387941099622
0.9828793881825737
0.916666666666667
0.9828793881825737
1.1732387941099622
1.4673577035610914
1.84147685720537
2.3011626335213133
1.9705950435671475
1.7165171868296265
1.555365663331973
1.5
1.555365663331973
1.7165171868296265
1.9705950435671475
2.3011626335213133

