# vtk DataFile Version 4.1
Header:
ASCII

DATASET UNSTRUCTURED_GRID
POINTS 5400 double
0.03888888888888888 0.04166666666666666 0.0
0.03888888888888888 0.12499999999999999 0.0
0.03888888888888888 0.2083333333333333 0.0
0.03888888888888888 0.2916666666666667 0.0
0.03888888888888888 0.375 0.0
0.038888888888888876 0.45833333333333326 0.0
0.03888888888888889 0.5416666666666667 0.0
0.03888888888888888 0.625 0.0
0.03888888888888889 0.7083333333333334 0.0
0.03888888888888888 0.7916666666666666 0.0
0.03888888888888888 0.875 0.0
0.03888888888888888 0.9583333333333333 0.0
0.03888888888888888 1.0416666666666667 0.0
0.03888888888888888 1.125 0.0
0.03888888888888888 1.2083333333333335 0.0
0.11666666666666665 0.04166666666666666 0.0
0.11666666666666664 0.12499999999999997 0.0
0.11666666666666664 0.20833333333333326 0.0
0.11666666666666664 0.2916666666666667 0.0
0.11666666666666664 0.375 0.0
0.11666666666666663 0.4583333333333333 0.0
0.11666666666666664 0.5416666666666667 0.0
0.11666666666666665 0.625 0.0
0.11666666666666664 0.7083333333333333 0.0
0.11666666666666664 0.7916666666666665 0.0
0.11666666666666665 0.875 0.0
0.11666666666666664 0.9583333333333333 0.0
0.11666666666666664 1.0416666666666667 0.0
0.11666666666666664 1.1250000000000002 0.0
0.11666666666666665 1.2083333333333333 0.0
0.1944444444444444 0.04166666666666666 0.0
0.1944444444444444 0.12499999999999997 0.0
0.19444444444444442 0.2083333333333333 0.0
0.19444444444444442 0.29166666666666663 0.0
0.1944444444444444 0.375 0.0
0.19444444444444442 0.45833333333333326 0.0
0.19444444444444442 0.5416666666666667 0.0
0.19444444444444442 0.625 0.0
0.19444444444444442 0.7083333333333333 0.0
0.19444444444444442 0.7916666666666666 0.0
0.19444444444444442 0.875 0.0
0.19444444444444442 0.9583333333333333 0.0
0.19444444444444442 1.0416666666666667 0.0
0.1944444444444444 1.125 0.0
0.1944444444444444 1.2083333333333333 0.0
0.27222222222222225 0.04166666666666666 0.0
0.27222222222222225 0.12499999999999997 0.0
0.27222222222222225 0.2083333333333333 0.0
0.27222222222222225 0.29166666666666663 0.0
0.27222222222222225 0.375 0.0
0.27222222222222225 0.4583333333333333 0.0
0.27222222222222225 0.5416666666666666 0.0
0.27222222222222225 0.625 0.0
0.27222222222222225 0.7083333333333333 0.0
0.27222222222222225 0.7916666666666666 0.0
0.27222222222222225 0.875 0.0
0.27222222222222225 0.9583333333333333 0.0
0.27222222222222225 1.0416666666666665 0.0
0.27222222222222225 1.125 0.0
0.27222222222222225 1.2083333333333333 0.0
0.35 0.04166666666666666 0.0
0.35000000000000003 0.12499999999999996 0.0
0.35000000000000003 0.20833333333333326 0.0
0.35 0.29166666666666663 0.0
0.35 0.375 0.0
0.35 0.45833333333333326 0.0
0.35 0.5416666666666666 0.0
0.35000000000000003 0.625 0.0
0.35 0.7083333333333333 0.0
0.35 0.7916666666666665 0.0
0.35000000000000003 0.875 0.0
0.35 0.9583333333333333 0.0
0.35000000000000003 1.0416666666666667 0.0
0.35000000000000003 1.125 0.0
0.35 1.2083333333333333 0.0
0.42777777777777776 0.04166666666666666 0.0
0.4277777777777777 0.12499999999999994 0.0
0.42777777777777776 0.2083333333333333 0.0
0.42777777777777776 0.2916666666666667 0.0
0.4277777777777778 0.37499999999999994 0.0
0.4277777777777777 0.45833333333333326 0.0
0.4277777777777778 0.5416666666666666 0.0
0.42777777777777776 0.625 0.0
0.4277777777777778 0.7083333333333333 0.0
0.4277777777777778 0.7916666666666666 0.0
0.4277777777777778 0.8749999999999999 0.0
0.4277777777777778 0.9583333333333333 0.0
0.42777777777777776 1.0416666666666665 0.0
0.4277777777777777 1.125 0.0
0.42777777777777776 1.2083333333333333 0.0
0.5055555555555556 0.04166666666666666 0.0
0.5055555555555556 0.12499999999999997 0.0
0.5055555555555556 0.2083333333333333 0.0
0.5055555555555555 0.29166666666666663 0.0
0.5055555555555555 0.375 0.0
0.5055555555555555 0.45833333333333326 0.0
0.5055555555555556 0.5416666666666667 0.0
0.5055555555555556 0.625 0.0
0.5055555555555556 0.7083333333333333 0.0
0.5055555555555555 0.7916666666666666 0.0
0.5055555555555556 0.8749999999999999 0.0
0.5055555555555556 0.9583333333333333 0.0
0.5055555555555556 1.0416666666666667 0.0
0.5055555555555556 1.125 0.0
0.5055555555555556 1.2083333333333335 0.0
0.5833333333333334 0.04166666666666666 0.0
0.5833333333333334 0.12499999999999997 0.0
0.5833333333333334 0.2083333333333333 0.0
0.5833333333333334 0.2916666666666667 0.0
0.5833333333333334 0.375 0.0
0.5833333333333334 0.4583333333333333 0.0
0.5833333333333334 0.5416666666666667 0.0
0.5833333333333334 0.625 0.0
0.5833333333333334 0.7083333333333333 0.0
0.5833333333333334 0.7916666666666666 0.0
0.5833333333333334 0.875 0.0
0.5833333333333334 0.9583333333333333 0.0
0.5833333333333334 1.0416666666666667 0.0
0.5833333333333334 1.125 0.0
0.5833333333333334 1.2083333333333333 0.0
0.6611111111111112 0.04166666666666666 0.0
0.6611111111111112 0.12499999999999997 0.0
0.6611111111111111 0.2083333333333333 0.0
0.6611111111111112 0.29166666666666663 0.0
0.6611111111111111 0.375 0.0
0.6611111111111111 0.45833333333333326 0.0
0.6611111111111111 0.5416666666666667 0.0
0.6611111111111111 0.625 0.0
0.6611111111111111 0.7083333333333333 0.0
0.6611111111111111 0.7916666666666666 0.0
0.6611111111111111 0.8749999999999999 0.0
0.6611111111111112 0.9583333333333333 0.0
0.6611111111111111 1.0416666666666667 0.0
0.6611111111111112 1.125 0.0
0.6611111111111112 1.2083333333333335 0.0
0.7388888888888889 0.04166666666666666 0.0
0.7388888888888889 0.12499999999999996 0.0
0.7388888888888889 0.20833333333333331 0.0
0.7388888888888889 0.2916666666666667 0.0
0.7388888888888889 0.375 0.0
0.7388888888888889 0.4583333333333333 0.0
0.7388888888888889 0.5416666666666667 0.0
0.7388888888888889 0.625 0.0
0.7388888888888889 0.7083333333333333 0.0
0.7388888888888889 0.7916666666666666 0.0
0.7388888888888889 0.8749999999999999 0.0
0.7388888888888889 0.9583333333333333 0.0
0.7388888888888889 1.0416666666666667 0.0
0.7388888888888889 1.125 0.0
0.7388888888888889 1.2083333333333333 0.0
0.8166666666666668 0.04166666666666666 0.0
0.8166666666666668 0.12499999999999997 0.0
0.8166666666666668 0.2083333333333333 0.0
0.8166666666666667 0.2916666666666667 0.0
0.8166666666666667 0.375 0.0
0.8166666666666667 0.4583333333333333 0.0
0.8166666666666667 0.5416666666666667 0.0
0.8166666666666667 0.625 0.0
0.8166666666666667 0.7083333333333333 0.0
0.8166666666666667 0.7916666666666666 0.0
0.8166666666666667 0.875 0.0
0.8166666666666667 0.9583333333333333 0.0
0.8166666666666668 1.0416666666666667 0.0
0.8166666666666668 1.125 0.0
0.8166666666666668 1.2083333333333335 0.0
0.8944444444444445 0.04166666666666666 0.0
0.8944444444444444 0.12499999999999997 0.0
0.8944444444444444 0.2083333333333333 0.0
0.8944444444444445 0.2916666666666667 0.0
0.8944444444444444 0.375 0.0
0.8944444444444444 0.4583333333333333 0.0
0.8944444444444445 0.5416666666666666 0.0
0.8944444444444445 0.625 0.0
0.8944444444444445 0.7083333333333333 0.0
0.8944444444444444 0.7916666666666666 0.0
0.8944444444444444 0.875 0.0
0.8944444444444445 0.9583333333333333 0.0
0.8944444444444444 1.0416666666666667 0.0
0.8944444444444444 1.125 0.0
0.8944444444444445 1.2083333333333335 0.0
0.9722222222222223 0.04166666666666666 0.0
0.9722222222222222 0.12499999999999997 0.0
0.9722222222222223 0.2083333333333333 0.0
0.9722222222222222 0.29166666666666663 0.0
0.9722222222222223 0.375 0.0
0.9722222222222223 0.45833333333333326 0.0
0.9722222222222223 0.5416666666666667 0.0
0.9722222222222223 0.625 0.0
0.9722222222222223 0.7083333333333333 0.0
0.9722222222222223 0.7916666666666666 0.0
0.9722222222222224 0.875 0.0
0.9722222222222223 0.9583333333333333 0.0
0.9722222222222223 1.0416666666666667 0.0
0.9722222222222222 1.125 0.0
0.9722222222222223 1.2083333333333333 0.0
1.05 0.04166666666666666 0.0
1.0500000000000003 0.12499999999999997 0.0
1.05 0.20833333333333326 0.0
1.05 0.2916666666666667 0.0
1.0500000000000003 0.375 0.0
1.05 0.4583333333333333 0.0
1.0500000000000003 0.5416666666666667 0.0
1.05 0.625 0.0
1.0500000000000003 0.7083333333333333 0.0
1.05 0.7916666666666665 0.0
1.0500000000000003 0.875 0.0
1.05 0.9583333333333333 0.0
1.05 1.0416666666666667 0.0
1.0500000000000003 1.1250000000000002 0.0
1.05 1.2083333333333333 0.0
1.1277777777777778 0.04166666666666666 0.0
1.127777777777778 0.12499999999999999 0.0
1.1277777777777778 0.2083333333333333 0.0
1.1277777777777778 0.2916666666666667 0.0
1.1277777777777778 0.375 0.0
1.1277777777777778 0.45833333333333326 0.0
1.1277777777777778 0.5416666666666667 0.0
1.1277777777777778 0.625 0.0
1.1277777777777778 0.7083333333333334 0.0
1.1277777777777778 0.7916666666666666 0.0
1.1277777777777778 0.875 0.0
1.1277777777777778 0.9583333333333333 0.0
1.1277777777777778 1.0416666666666667 0.0
1.127777777777778 1.125 0.0
1.1277777777777778 1.2083333333333335 0.0
1.2055555555555557 0.04166666666666666 0.0
1.205555555555556 0.12499999999999999 0.0
1.2055555555555557 0.2083333333333333 0.0
1.2055555555555555 0.2916666666666667 0.0
1.2055555555555555 0.375 0.0
1.2055555555555555 0.45833333333333326 0.0
1.2055555555555557 0.5416666666666667 0.0
1.2055555555555555 0.625 0.0
1.2055555555555557 0.7083333333333334 0.0
1.2055555555555555 0.7916666666666666 0.0
1.2055555555555557 0.875 0.0
1.2055555555555557 0.9583333333333333 0.0
1.2055555555555555 1.0416666666666667 0.0
1.2055555555555557 1.125 0.0
1.2055555555555555 1.2083333333333335 0.0
1.2833333333333334 0.04166666666666666 0.0
1.2833333333333337 0.12499999999999997 0.0
1.2833333333333334 0.20833333333333326 0.0
1.2833333333333334 0.2916666666666667 0.0
1.2833333333333334 0.375 0.0
1.2833333333333332 0.4583333333333333 0.0
1.2833333333333334 0.5416666666666667 0.0
1.2833333333333334 0.625 0.0
1.2833333333333337 0.7083333333333333 0.0
1.2833333333333334 0.7916666666666665 0.0
1.2833333333333337 0.875 0.0
1.2833333333333332 0.9583333333333333 0.0
1.2833333333333332 1.0416666666666667 0.0
1.2833333333333334 1.1250000000000002 0.0
1.2833333333333334 1.2083333333333333 0.0
1.3611111111111112 0.04166666666666666 0.0
1.3611111111111112 0.12499999999999997 0.0
[...]
POINT_DATA 5400
SCALARS level_set double 1
LOOKUP_TABLE default
2.2520839390301814
2.2126897864084163
2.1732956337866502
2.133901481164884
2.094507328543118
2.0551131759213517
2.015719023299586
1.9763248706778203
1.9369307180560544
1.8975365654342884
1.8581424128125223
1.8187482601907565
1.7793541075689905
1.7399599549472244
1.7005658023254584
2.1929029131606987
2.152673181520959
2.1124434498812192
2.0722137182414797
2.03198398660174
1.991754254962
1.9515245233222607
1.911294791682521
1.8710650600427814
1.8308353284030416
1.7906055967633023
1.7503758651235626
1.7101461334838226
1.669916401844083
1.6296866702043433
2.1337218872912147
2.0926565766335017
2.0515912659757887
2.010525955318075
1.9694606446603617
1.9283953340026487
1.8873300233449353
1.8462647126872218
1.8051994020295088
1.7641340913717953
1.7230687807140819
1.6820034700563689
1.6409381593986552
1.5998728487409415
1.5588075380832285
2.0745408614217316
2.032639971746045
1.9907390820703577
1.9488381923946703
1.9069373027189835
1.8650364130432966
1.8231355233676096
1.7812346336919227
1.7393337440162355
1.6974328543405486
1.6555319646648616
1.6136310749891747
1.5717301853134873
1.5298292956378003
1.4879284059621134
2.0153598355522484
1.972623366858588
1.929886898164927
1.8871504294712662
1.8444139607776053
1.8016774920839447
1.758941023390284
1.7162045546966234
1.6734680860029627
1.6307316173093018
1.5879951486156414
1.5452586799219805
1.5025222112283199
1.4597857425346592
1.4170492738409983
1.9561788096827648
1.9126067619711304
1.8690347142594963
1.8254626665478617
1.7818906188362273
1.738318571124593
1.6947465234129586
1.6511744757013243
1.6076024279896897
1.5640303802780555
1.5204583325664212
1.4768862848547868
1.433314237143152
1.3897421894315176
1.3461701417198835
1.8969977838132817
1.8525901570836736
1.8081825303540655
1.7637749036244574
1.7193672768948494
1.674959650165241
1.630552023435633
1.586144396706025
1.541736769976417
1.4973291432468088
1.4529215165172007
1.4085138897875926
1.3641062630579845
1.3196986363283765
1.2752910095987684
1.8378167579437983
1.7925735521962165
1.747330346448635
1.702087140701053
1.6568439349534714
1.6116007292058891
1.5663575234583074
1.521114317710726
1.4758711119631442
1.4306279062155622
1.3853847004679807
1.3401414947203987
1.294898288972817
1.249655083225235
1.2044118774776533
1.7786357320743154
1.7325569473087596
1.6864781625432042
1.6403993777776484
1.5943205930120932
1.5482418082465375
1.502163023480982
1.4560842387154267
1.4100054539498712
1.3639266691843157
1.31784788441876
1.2717690996532047
1.2256903148876495
1.1796115301220937
1.1335327453565385
1.7194547062048315
1.6725403424213023
1.6256259786377734
1.5787116148542437
1.5317972510707147
1.4848828872871858
1.4379685235036566
1.3910541597201274
1.3441397959365982
1.297225432153069
1.25031106836954
1.2033967045860108
1.1564823408024816
1.1095679770189526
1.0626536132354232
1.6602736803353482
1.6125237375338455
1.5647737947323426
1.5170238519308394
1.4692739091293365
1.4215239663278338
1.373774023526331
1.3260240807248282
1.2782741379233253
1.2305241951218224
1.1827742523203195
1.1350243095188168
1.087274366717314
1.0395244239158112
0.9917744811143082
1.6010926544658646
1.5525071326463882
1.5039216108269116
1.455336089007435
1.4067505671879585
1.3581650453684821
1.3095795235490055
1.260994001729529
1.2124084799100525
1.163822958090576
1.1152374362710995
1.0666519144516229
1.0180663926321463
0.9694808708126698
0.9208953489931933
1.5419116285963812
1.4924905277589309
1.443069426921481
1.3936483260840304
1.3442272252465803
1.29480612440913
1.24538502357168
1.1959639227342298
1.1465428218967795
1.0971217210593291
1.047700620221879
0.9982795193844287
0.9488584185469786
0.8994373177095283
0.8500162168720781
1.4827306027268978
1.432473922871474
1.3822172430160498
1.331960563160626
1.2817038833052024
1.231447203449778
1.1811905235943545
1.1309338437389305
1.0806771638835067
1.0304204840280828
0.9801638041726589
0.9299071243172348
0.879650444461811
0.829393764606387
0.7791370847509631
1.4235495768574145
1.372457317984017
1.3213650591106192
1.2702728002372214
1.2191805413638241
1.1680882824904266
1.116996023617029
1.0659037647436311
1.0148115058702338
0.963719246996836
0.9126269881234386
0.8615347292500409
0.8104424703766432
0.7593502115032457
0.7082579526298481
1.3716223835742318
1.3194982986220363
1.2673742136698403
1.2152501287176445
1.1631260437654487
1.111001958813253
1.0588778738610571
1.0067537889088614
0.9546297039566656
0.9025056190044697
0.850381534052274
0.7982574491000781
0.7461333641478822
0.6940092791956864
0.6418851942434908
1.3269490228773502
1.2735968647855316
1.220244706693713
1.1668925486018944
1.113540390510076
1.0601882324182574
1.006836074326439
0.9534839162346207
0.9001317581428021
0.8467796000509835
0.7934274419591651
0.7400752838673466
0.686723125775528
0.6333709676837096
0.580018809591891
1.2822756621804683
1.227695430949027
1.173115199717586
1.1185349684861445
1.0639547372547034
1.0093745060232622
0.954794274791821
0.9002140435603798
0.8456338123289387
0.7910535810974975
0.7364733498660563
0.6818931186346149
0.6273128874031738
0.5727326561717325
0.5181524249402913
1.2376023014835864
1.1817939971125226
1.1259856927414584
1.0701773883703947
1.0143690839993307
0.9585607796282668
0.9027524752572029
0.8469441708861389
0.791135866515075
0.7353275621440111
0.6795192577729472
0.6237109534018834
0.5679026490308193
0.5120943446597555
0.4562860402886916
1.1929289407867048
1.135892563276018
1.0788561857653314
1.0218198082546448
0.9647834307439581
0.9077470532332715
0.8507106757225847
0.7936742982118983
0.7366379207012117
0.679601543190525
0.6225651656798384
0.5655287881691518
0.5084924106584652
0.4514560331477785
0.3944196556370919
1.1482555800898229
1.0899911294395133
1.031726678789204
0.9734622281388948
0.9151977774885854
0.8569333268382762
0.7986688761879668
0.7404044255376574
0.6821399748873482
0.6238755242370388
0.5656110735867296
0.5073466229364203
0.44908217228611086
0.39081772163580153
0.3325532709854922
1.1035822193929414
1.044089695603009
0.9845971718130769
0.9251046480231448
0.8656121242332128
0.8061196004432808
0.7466270766533487
0.6871345528634167
0.6276420290734848
0.5681495052835528
0.5086569814936206
0.4491644577036886
0.38967193391375654
0.3301794101238245
0.27068688633389254
1.0589088586960593
0.9981882617665045
0.9374676648369498
0.876747067907395
0.8160264709778402
0.7553058740482854
0.6945852771187306
0.6338646801891761
0.5731440832596213
0.5124234863300665
0.45170288940051184
0.39098229247095706
0.3302616955414022
0.2695410986118475
0.20882050168229277
1.0142354979991774
0.9522868279300001
0.8903381578608226
0.828389487791645
0.7664408177224675
0.70449214765329
0.6425434775841127
0.5805948075149353
0.5186461374457578
0.4566974673765804
0.394748797307403
0.3328001272382255
0.270851457169048
0.2089027870998705
0.1469541170306931
0.9695621373022956
0.9063853940934955
0.8432086508846953
0.780031907675895
0.716855164467095
0.6536784212582949
0.5905016780494946
0.5273249348406946
0.4641481916318944
0.4009714484230943
0.3377947052142941
0.27461796200549393
0.2114412187966937
0.14826447558789357
0.0850877323790934
0.9248887766054139
0.8604839602569911
0.7960791439085682
0.7316743275601453
0.6672695112117224
0.6028646948632995
0.5384598785148766
0.4740550621664538
0.40965024581803094
0.34524542946960807
0.28084061312118525
0.2164357967727624
0.1520309804243394
0.08762616407591658
0.023221347727493707
0.880215415908532
0.8145825264204866
0.7489496369324409
0.6833167474443954
0.6176838579563498
0.5520509684683043
0.4864180789802586
0.4207851894922131
0.3551523000041675
0.2895194105161219
0.22388652102807638
0.15825363154003086
0.09262074205198514
0.026987852563939624
-0.03864503692410595
0.8355420552116501
0.7686810925839819
0.7018201299563136
0.6349591673286452
0.568098204700977
0.5012372420733089
0.4343762794456404
0.3675153168179722
0.30065435419030395
0.23379339156263568
0.1669324289349674
0.10007146630729917
0.033210503679630785
-0.033650458948037476
-0.10051142157570576
0.7908686945147684
0.7227796587474774
0.6546906229801864
0.5866015872128953
0.5185125514456045
0.4504235156783134
0.38233447991102243
0.3142454441437315
0.24615640837644054
0.17806737260914954
0.10997833684185856
0.04188930107456761
-0.026199734692723506
-0.09428877046001448
-0.1623778062273054
0.7461953338178865
0.6768782249109729
0.6075611160040593
0.5382440070971455
0.4689268981902318
0.3996097892833182
0.3302926803764044
0.26097557146949074
0.19165846256257704
0.12234135365566334
0.0530242447487497
-0.016292864158163976
-0.08560997306507778
-0.15492708197199143
-0.22424419087890513
0.7150078094649085
0.6446299243929634
0.574252039321018
0.5038741542490726
0.43349626917712747
0.36311838410518205
0.2927404990332367
0.2223626139612913
0.15198472888934608
0.08160684381740071
0.01122895874545543
-0.05914892632648988
-0.1295268113984353
-0.19990469647038062
-0.27028258154232593
0.6973061214558346
0.6260347571934487
0.5547633929310627
0.48349202866867685
0.41222066440629096
0.3409493001439051
0.2696779358815192
0.19840657161913336
0.1271352073567475
0.0558638430943616
-0.01540752116802424
-0.0866788854304101
-0.15795024969279609
-0.22922161395518198
-0.3004929782175678
0.6796044334467602
0.6074395899939339
0.5352747465411074
0.4631099030882809
0.3909450596354546
0.31878021618262814
0.24661537272980172
0.17445052927697524
0.1022856858241489
0.030120842371322426
-0.04204400108150391
-0.1142088445343303
-0.18637368798715687
-0.2585385314399833
-0.33070337489280965
0.661902745437686
0.5888444227944192
0.5157861001511522
0.44272777750788517
0.3696694548646182
0.29661113222135127
0.22355280957808424
0.15049448693481726
0.07743616429155034
0.004377841648283282
-0.06868048099498364
-0.14173880363825056
-0.21479712628151765
-0.28785544892478465
-0.3609137715680516
0.6442010574286121
0.5702492555949046
0.49629745376119705
0.4223456519274893
0.3483938500937818
0.2744420482600743
0.20049024642636665
0.12653844459265928
0.052586642758951724
-0.021365159074755835
-0.09531696090846328
-0.16926876274217081
-0.24322056457587846
-0.317172366409586
-0.39112416824329344
0.6264993694195378
0.5516540883953898
0.4768088073712417
0.40196352634709354
0.3271182453229455
0.2522729642987974
0.17742768327464922
0.10258240225050125
0.027737121226353176
-0.04710815979779488
-0.12195344082194301
-0.19679872184609107
-0.2716440028702392
-0.34648928389438727
-0.4213345649185354
0.6087976814104636
0.5330589211958752
0.45732016098128647
0.3815814007666977
0.3058426405521091
0.2301038803375205
0.1543651201229318
0.0786263599083432
0.0028875996937545445
-0.07285116052083403
-0.14858992073542265
-0.2243286809500113
-0.30006744116460005
-0.37580620137918863
-0.4515449615937773
0.5910959934013896
0.5144637539963604
0.4378315145913312
0.3611992751863019
0.28456703578127274
0.2079347963762436
0.13130255697121435
0.05467031756618518
-0.021961921838844004
-0.09859416124387319
-0.17522640064890233
-0.2518586400539315
-0.3284908794589608
-0.40512311886399
-0.48175535826901916
0.5733943053923154
0.4958685867968457
0.4183428682013759
0.3408171496059061
0.26329143101043634
0.18576571241496664
0.10823999381949685
0.030714275224027157
-0.04681144337144251
-0.12433716196691233
-0.20186288056238205
-0.27938859915785175
-0.35691431775332155
-0.43444003634879136
-0.5119657549442611
0.5556926173832412
0.4772734195973309
0.3988542218114206
0.3204350240255103
0.24201582623960005
0.16359662845368975
0.08517743066777944
0.006758232881869129
-0.07166096490404117
-0.1500801626899514
-0.22849936047586167
-0.30691855826177195
-0.3853377560476824
-0.4637569538335926
-0.5421761516195029
0.5379909293741671
0.4586782523978163
0.37936557542146543
0.3000528984451145
0.22074022146876365
0.1414275444924128
0.0621148675160619
-0.017197809460288864
-0.09651048643663972
-0.17582316341299054
-0.25513584038934134
-0.3344485173656922
-0.4137611943420431
-0.49307387131839403
-0.5723865482947448
0.5202892413650929
0.44008308519830147
0.35987692903151014
0.2796707728647187
0.19946461669792728
0.11925846053113588
0.03905230436434448
-0.04115385180244692
-0.12136000796923829
-0.20156616413602968
-0.28177232030282107
-0.36197847646961245
-0.4421846326364039
-0.5223907888031953
-0.6025969449699866
0.5025875533560187
0.42148791799878677
0.3403882826415549
0.25928864728432277
0.17818901192709088
0.097089376569859
0.01598974121262693
-0.06510989414460495
-0.14620952950183685
-0.22730916485906888
-0.3084088002163008
-0.38950843557353265
-0.47060807093076473
-0.5517077062879967
-0.6328073416452287
0.48488586534694456
0.40289275079927206
0.32089963625159956
0.23890652170392696
0.15691340715625454
0.07492029260858207
-0.007072821939090458
-0.089065936486763
-0.17105905103443547
-0.25305216558210797
-0.3350452801297804
-0.4170383946774529
-0.4990315092251255
-0.5810246237727981
-0.6630177383204705
0.4671841773378704
0.38429758359975735
0.3014109898616444
0.21852439612353117
0.13563780238541817
0.052751208647305134
-0.03013538509080796
-0.113021978828921
-0.19590857256703406
-0.27879516630514706
-0.3616817600432601
-0.44456835378137316
-0.5274549475194864
-0.6103415412575993
-0.6932281349957123
0.4671841773378704
0.3842975835997574
0.3014109898616444
0.21852439612353114
0.13563780238541817
0.05275120864730515
-0.03013538509080793
-0.11302197882892101
-0.19590857256703406
-0.2787951663051471
-0.3616817600432601
-0.44456835378137316
-0.5274549475194864
-0.6103415412575993
-0.6932281349957123
0.4848858653469446
0.40289275079927206
0.32089963625159956
0.23890652170392696
0.15691340715625451
0.0749202926085821
-0.0070728219390904234
-0.089065936486763
-0.17105905103443547
-0.25305216558210797
-0.3350452801297804
-0.4170383946774529
-0.4990315092251255
-0.5810246237727981
-0.6630177383204704
0.5025875533560187
0.42148791799878677
0.34038828264155485
0.25928864728432277
0.1781890119270909
0.097089376569859
0.015989741212626973
-0.06510989414460494
-0.14620952950183683
-0.22730916485906885
-0.30840880021630074
-0.38950843557353265
-0.47060807093076473
-0.5517077062879966
-0.6328073416452287
0.5202892413650928
0.44008308519830147
0.35987692903151003
0.2796707728647187
0.1994646166979273
0.11925846053113592
0.03905230436434454
-0.04115385180244688
-0.12136000796923829
-0.20156616413602968
-0.28177232030282107
-0.3619784764696124
-0.44218463263640384
-0.5223907888031952
-0.6025969449699866
0.5379909293741671
0.45867825239781623
0.37936557542146543
0.30005289844511446
0.22074022146876363
0.1414275444924128
0.062114867516061906
-0.017197809460288815
-0.09651048643663968
-0.1758231634129905
-0.25513584038934134
-0.33444851736569214
-0.4137611943420431
-0.493073871318394
-0.5723865482947448
0.5556926173832412
0.47727341959733094
0.3988542218114206
0.32043502402551033
0.24201582623960002
0.16359662845368977
0.0851774306677795
0.006758232881869164
-0.07166096490404111
-0.15008016268995136
-0.2284993604758616
-0.30691855826177195
-0.38533775604768233
-0.46375695383359256
-0.5421761516195028
0.5733943053923154
0.49586858679684576
0.41834286820137595
0.34081714960590614
0.26329143101043634
0.1857657124149667
0.10823999381949692
0.0307142752240272
-0.04681144337144247
-0.12433716196691225
-0.20186288056238197
-0.2793885991578517
-0.3569143177533215
-0.43444003634879125
-0.511965754944261
0.5910959934013896
0.5144637539963604
0.4378315145913312
0.3611992751863019
0.2845670357812728
0.2079347963762436
0.13130255697121437
0.054670317566185234
-0.021961921838843934
-0.0985941612438731
-0.17522640064890227
-0.25185864005393144
-0.3284908794589607
-0.4051231188639899
-0.48175535826901905
0.6087976814104636
0.5330589211958752
0.4573201609812865
0.3815814007666978
0.3058426405521091
0.23010388033752052
0.15436512012293183
0.07862635990834327
0.0028875996937546278
-0.07285116052083396
-0.14858992073542257
-0.2243286809500112
-0.30006744116459994
-0.3758062013791885
-0.4515449615937772
0.6264993694195379
0.5516540883953898
0.4768088073712418
0.40196352634709354
0.3271182453229455
0.2522729642987974
0.17742768327464936
0.1025824022505013
0.027737121226353245
-0.04710815979779484
-0.12195344082194287
-0.19679872184609096
-0.27164400287023915
-0.34648928389438716
-0.42133456491853527
0.6442010574286121
0.5702492555949046
0.49629745376119705
0.42234565192748946
0.3483938500937819
0.27444204826007434
0.2004902464263668
0.1265384445926593
0.05258664275895186
-0.021365159074755724
-0.09531696090846323
-0.16926876274217073
-0.24322056457587837
-0.3171723664095859
-0.3911241682432933
0.6619027454376861
0.5888444227944192
0.5157861001511522
0.4427277775078852
0.3696694548646182
0.29661113222135127
0.22355280957808432
0.15049448693481737
0.0774361642915504
0.004377841648283365
-0.06868048099498353
-0.1417388036382505
-0.21479712628151754
-0.2878554489247845
-0.3609137715680515
0.6796044334467602
0.6074395899939339
0.5352747465411075
0.463109903088281
0.3909450596354547
0.31878021618262825
0.24661537272980175
0.17445052927697535
0.10228568582414901
0.03012084237132255
-0.04204400108150377
-0.11420884453433017
-0.18637368798715676
-0.2585385314399831
-0.3307033748928095
0.6973061214558346
0.6260347571934487
0.5547633929310627
0.48349202866867685
0.412220664406291
0.3409493001439052
0.26967793588151934
0.19840657161913344
0.1271352073567476
0.05586384309436171
-0.015407521168024095
-0.08667888543040995
-0.15795024969279592
-0.22922161395518176
-0.3004929782175676
0.7150078094649085
0.6446299243929634
0.574252039321018
0.5038741542490726
0.4334962691771274
0.3631183841051821
0.2927404990332368
0.22236261396129142
0.1519847288893462
0.08160684381740084
0.01122895874545559
-0.05914892632648971
-0.12952681139843514
-0.19990469647038042
-0.2702825815423257
0.7461953338178865
0.6768782249109729
0.6075611160040593
0.5382440070971455
0.4689268981902319
0.3996097892833182
0.33029268037640447
0.26097557146949085
0.1916584625625772
0.12234135365566351
0.053024244748749894
-0.016292864158163778
-0.08560997306507759
-0.15492708197199123
-0.22424419087890488
0.7908686945147685
0.7227796587474774
0.6546906229801865
0.5866015872128956
0.5185125514456045
0.45042351567831357
0.38233447991102265
0.31424544414373157
0.2461564083764407
0.17806737260914968
0.10997833684185879
0.041889301074567814
-0.026199734692723242
-0.09428877046001422
-0.1623778062273052
0.8355420552116503
0.768681092583982
0.7018201299563138
0.6349591673286453
0.5680982047009773
0.501237242073309
0.4343762794456406
0.3675153168179724
0.3006543541903042
0.23379339156263587
0.16693242893496762
0.10007146630729943
0.03321050367963105
-0.03365045894803717
-0.10051142157570545
0.8802154159085321
0.8145825264204866
0.7489496369324409
0.6833167474443954
0.61768385795635
0.5520509684683044
0.4864180789802588
0.42078518949221333
0.35515230000416764
0.2895194105161222
0.22388652102807657
0.15825363154003105
0.09262074205198542
0.02698785256393993
-0.03864503692410562
0.924888776605414
0.8604839602569911
0.7960791439085684
0.7316743275601454
0.6672695112117225
0.6028646948632997
0.5384598785148768
0.47405506216645393
0.4096502458180312
0.34524542946960834
0.2808406131211855
0.21643579677276267
0.15203098042433977
0.08762616407591697
0.023221347727494096
0.9695621373022957
0.9063853940934956
0.8432086508846955
0.7800319076758954
0.7168551644670952
0.653678421258295
0.5905016780494948
0.5273249348406948
0.4641481916318947
0.40097144842309457
0.33779470521429444
0.27461796200549426
0.21144121879669406
0.1482644755878939
0.08508773237909378
1.0142354979991777
0.9522868279300003
0.8903381578608228
0.8283894877916455
0.766440817722468
0.7044921476532904
0.642543477584113
0.5805948075149355
0.5186461374457582
0.4566974673765808
0.3947487973074034
0.33280012723822594
0.27085145716904846
0.20890278709987103
0.14695411703069364
1.0589088586960593
0.9981882617665047
0.9374676648369501
0.8767470679073953
0.8160264709778404
0.7553058740482859
0.6945852771187312
0.6338646801891764
0.5731440832596216
0.512423486330067
0.45170288940051234
0.3909822924709576
0.3302616955414028
0.26954109861184805
0.20882050168229332
1.1035822193929417
1.0440896956030095
0.9845971718130773