# vtk DataFile Version 4.1
Header:
ASCII

DATASET UNSTRUCTURED_GRID
POINTS 216 double
-1 -1 0
-0.5 -1 0
-0.5 -0.5 0
-1 -0.5 0
-0.5 -1 0
0 -1 0
0 -0.5 0
-0.5 -0.5 0
0 -1 0
0.5 -1 0
0.5 -0.5 0
0 -0.5 0
0.5 -1 0
1 -1 0
1 -0.5 0
0.5 -0.5 0
-1 -0.5 0
-0.5 -0.5 0
-0.5 0 0
-1 0 0
-0.5 -0.5 0
-0.48985366282692877 -0.09999999999999998 0
-0.45781460725650924 -0.2 0
-0.5 -0.5 0
-0.5 0 0
-0.48985366282692877 -0.09999999999999998 0
0 0 0
-0.4 -0.30000000000000016 0
-0.45781460725650924 -0.2 0
-0.5 -0.5 0
-0.45781460725650924 -0.2 0
-0.4 -0.30000000000000016 0
-0.5 -0.5 0
-0.09999999999999998 -0.48985366282692877 0
0 -0.5 0
-0.5 -0.5 0
-0.2 -0.45781460725650924 0
-0.09999999999999998 -0.48985366282692877 0
0 0 0
0 -0.5 0
-0.09999999999999998 -0.48985366282692877 0
0 0 0
-0.09999999999999998 -0.48985366282692877 0
-0.2 -0.45781460725650924 0
-0.5 -0.5 0
-0.3 -0.40000000000000013 0
-0.2 -0.45781460725650924 0
-0.5 -0.5 0
-0.4 -0.30000000000000016 0
-0.3 -0.40000000000000013 0
0 0 0
-0.2 -0.45781460725650924 0
-0.3 -0.40000000000000013 0
0 0 0
-0.3 -0.40000000000000013 0
-0.4 -0.30000000000000016 0
0 0 0
-0.45781460725650924 -0.2 0
-0.48985366282692877 -0.09999999999999998 0
0 0 0
-0.48985366282692877 -0.09999999999999998 0
-0.5 0 0
0.5 0 0
0.48985366282692866 -0.09999999999999998 0
0 0 0
0.48985366282692866 -0.09999999999999998 0
0.4578146072565092 -0.2 0
0 0 0
0.4 -0.3 0
0.4578146072565092 -0.2 0
0.5 -0.5 0
0.4578146072565092 -0.2 0
0.4 -0.3 0
0 0 0
0.3 -0.4000000000000001 0
0.4 -0.3 0
0.5 -0.5 0
0.2 -0.45781460725650913 0
0.3 -0.4000000000000001 0
0.5 -0.5 0
0.4 -0.3 0
0.3 -0.4000000000000001 0
0 0 0
0.3 -0.4000000000000001 0
0.2 -0.45781460725650913 0
0 0 0
0.1 -0.48985366282692877 0
0.2 -0.45781460725650913 0
0.5 -0.5 0
0 -0.5 0
0.1 -0.48985366282692877 0
0.5 -0.5 0
0.2 -0.45781460725650913 0
0.1 -0.48985366282692877 0
0 0 0
0 -0.5 0
0 0 0
0.1 -0.48985366282692877 0
0.5 0 0
0.5 -0.5 0
0.48985366282692866 -0.09999999999999998 0
0.4578146072565092 -0.2 0
0.48985366282692866 -0.09999999999999998 0
0.5 -0.5 0
0.5 -0.5 0
1 -0.5 0
1 0 0
0.5 0 0
-1 0 0
-0.5 0 0
-0.5 0.5 0
-1 0.5 0
0 0.5 0
0 0 0
-0.09999999999999998 0.48985366282692866 0
-0.2 0.4578146072565092 0
-0.09999999999999998 0.48985366282692866 0
0 0 0
-0.2 0.4578146072565092 0
-0.3 0.4 0
-0.5 0.5 0
-0.3 0.4 0
-0.2 0.4578146072565092 0
0 0 0
-0.4000000000000001 0.3 0
-0.3 0.4 0
0 0 0
-0.45781460725650913 0.2 0
-0.4000000000000001 0.3 0
0 0 0
-0.3 0.4 0
-0.4000000000000001 0.3 0
-0.5 0.5 0
-0.4000000000000001 0.3 0
-0.45781460725650913 0.2 0
-0.5 0.5 0
-0.48985366282692877 0.1 0
-0.45781460725650913 0.2 0
0 0 0
-0.5 0 0
-0.48985366282692877 0.1 0
0 0 0
-0.45781460725650913 0.2 0
-0.48985366282692877 0.1 0
-0.5 0.5 0
-0.5 0 0
-0.5 0.5 0
-0.48985366282692877 0.1 0
0 0.5 0
-0.09999999999999998 0.48985366282692866 0
-0.5 0.5 0
-0.09999999999999998 0.48985366282692866 0
-0.2 0.4578146072565092 0
-0.5 0.5 0
0 0 0
0.1 0.4898536628269287 0
0.2 0.457814607256509 0
0 0 0
0 0.5 0
0.1 0.4898536628269287 0
0.5 0.5 0
0.3 0.39999999999999986 0
0.2 0.457814607256509 0
0 0 0
0.2 0.457814607256509 0
0.3 0.39999999999999986 0
0 0 0
0.4898536628269287 0.1 0
0.5 0 0
0 0 0
0.457814607256509 0.2 0
0.4898536628269287 0.1 0
0.5 0.5 0
0.5 0 0
0.4898536628269287 0.1 0
0.5 0.5 0
0.4898536628269287 0.1 0
0.457814607256509 0.2 0
0 0 0
0.4 0.29999999999999977 0
0.457814607256509 0.2 0
0 0 0
0.3 0.39999999999999986 0
0.4 0.29999999999999977 0
0.5 0.5 0
0.457814607256509 0.2 0
0.4 0.29999999999999977 0
0.5 0.5 0
0.4 0.29999999999999977 0
0.3 0.39999999999999986 0
0.5 0.5 0
0.2 0.457814607256509 0
0.1 0.4898536628269287 0
0.5 0.5 0
0.1 0.4898536628269287 0
0 0.5 0
0.5 0 0
1 0 0
1 0.5 0
0.5 0.5 0
-1 0.5 0
-0.5 0.5 0
-0.5 1 0
-1 1 0
-0.5 0.5 0
0 0.5 0
0 1 0
-0.5 1 0
0 0.5 0
0.5 0.5 0
0.5 1 0
0 1 0
0.5 0.5 0
1 0.5 0
1 1 0
0.5 1 0

CELLS 68 284
4 0 1 2 3
4 4 5 6 7
4 8 9 10 11
4 12 13 14 15
4 16 17 18 19
3 20 21 22
3 23 24 25
3 26 27 28
3 29 30 31
3 32 33 34
3 35 36 37
3 38 39 40
3 41 42 43
3 44 45 46
3 47 48 49
3 50 51 52
3 53 54 55
3 56 57 58
3 59 60 61
3 62 63 64
3 65 66 67
3 68 69 70
3 71 72 73
3 74 75 76
3 77 78 79
3 80 81 82
3 83 84 85
3 86 87 88
3 89 90 91
3 92 93 94
3 95 96 97
3 98 99 100
3 101 102 103
4 104 105 106 107
4 108 109 110 111
3 112 113 114
3 115 116 117
3 118 119 120
3 121 122 123
3 124 125 126
3 127 128 129
3 130 131 132
3 133 134 135
3 136 137 138
3 139 140 141
3 142 143 144
3 145 146 147
3 148 149 150
3 151 152 153
3 154 155 156
3 157 158 159
3 160 161 162
3 163 164 165
3 166 167 168
3 169 170 171
3 172 173 174
3 175 176 177
3 178 179 180
3 181 182 183
3 184 185 186
3 187 188 189
3 190 191 192
3 193 194 195
4 196 197 198 199
4 200 201 202 203
4 204 205 206 207
4 208 209 210 211
4 212 213 214 215

CELL_TYPES 68
9
9
9
9
9
5
5
5
5
5
5
5
5
5
5
5
5
5
5
5
5
5
5
5
5
5
5
5
5
5
5
5
5
9
9
5
5
5
5
5
5
5
5
5
5
5
5
5
5
5
5
5
5
5
5
5
5
5
5
5
5
5
5
9
9
9
9
9


POINT_DATA 216
SCALARS phase double 1
LOOKUP_TABLE default
0
0
0
0
0
0
0
0
0
0
0
0
0
0
0
0
0
0
0
0
0
0
0
0
0
0
1
1
1
0
0
0
0
0
0
0
0
0
1
1
1
1
1
1
0
0
0
0
0
0
1
1
1
1
1
1
1
1
1
1
1
1
1
1
1
1
1
1
0
0
0
1
1
1
0
0
0
0
0
0
1
1
1
1
1
1
0
0
0
0
0
0
1
1
1
1
1
1
0
0
0
0
0
0
0
0
0
0
0
0
0
0
1
1
1
1
1
1
0
0
0
1
1
1
1
1
1
1
1
1
0
0
0
0
0
0
1
1
1
1
1
1
0
0
0
0
0
0
0
0
0
0
0
0
1
1
1
1
1
1
0
0
0
1
1
1
1
1
1
1
1
1
0
0
0
0
0
0
1
1
1
1
1
1
0
0
0
0
0
0
0
0
0
0
0
0
0
0
0
0
0
0
0
0
0
0
0
0
0
0
0
0
0
0
0
0

