# vtk DataFile Version 4.1
Header:
ASCII

DATASET UNSTRUCTURED_GRID
POINTS 9 double
-0.5 -0.5 0.0
0 -0.5 0.0
0.5 -0.5 0.0
-0.5 0 0.0
0 0 0.0
0.5 0 0.0
-0.5 0.5 0.0
0 0.5 0.0
0.5 0.5 0.0


POINT_DATA 9
SCALARS enriched_nodes_heaviside double 1
LOOKUP_TABLE default
0
0
0
0
0
0
0
0
0

