# vtk DataFile Version 4.1
Header:
ASCII

DATASET UNSTRUCTURED_GRID
POINTS 216 double
-0.8943375672974065 -0.8943375672974064 0.0
-0.6056624327025937 -0.8943375672974064 0.0
-0.8943375672974065 -0.6056624327025937 0.0
-0.6056624327025937 -0.6056624327025936 0.0
-0.39433756729740643 -0.8943375672974064 0.0
-0.10566243270259357 -0.8943375672974064 0.0
-0.39433756729740643 -0.6056624327025937 0.0
-0.10566243270259357 -0.6056624327025936 0.0
0.10566243270259357 -0.8943375672974064 0.0
0.39433756729740643 -0.8943375672974064 0.0
0.10566243270259357 -0.6056624327025937 0.0
0.39433756729740643 -0.6056624327025936 0.0
0.6056624327025937 -0.8943375672974064 0.0
0.8943375672974065 -0.8943375672974064 0.0
0.6056624327025937 -0.6056624327025937 0.0
0.8943375672974065 -0.6056624327025936 0.0
-0.8943375672974065 -0.39433756729740643 0.0
-0.6056624327025937 -0.39433756729740643 0.0
-0.8943375672974065 -0.10566243270259357 0.0
-0.6056624327025937 -0.10566243270259357 0.0
-0.48620487642737054 -0.18333333333333102 0.0
-0.47018534864216077 -0.23333333333333103 0.0
-0.49127804501390615 -0.38333333333333103 0.0
-0.4983089438044881 -0.09999999999999704 0.0
-0.4932357752179525 -0.14999999999999705 0.0
-0.4983089438044881 -0.34999999999999704 0.0
-0.34296910120942103 -0.2333333333333351 0.0
-0.37187640483767564 -0.183333333333335 0.0
-0.14296910120942102 -0.08333333333333501 0.0
-0.4552097381710057 -0.26666666666666505 0.0
-0.4263024345427511 -0.3166666666666652 0.0
-0.4763024345427511 -0.4166666666666651 0.0
-0.14999999999999705 -0.4932357752179525 0.0
-0.09999999999999704 -0.4983089438044881 0.0
-0.34999999999999704 -0.4983089438044881 0.0
-0.233333333333331 -0.47018534864216077 0.0
-0.18333333333333102 -0.48620487642737054 0.0
-0.38333333333333103 -0.49127804501390615 0.0
-0.016666666666666996 -0.41497561047115805 0.0
-0.06666666666666698 -0.40990244188462244 0.0
-0.016666666666666996 -0.16497561047115805 0.0
-0.10000000000000098 -0.4028715430940405 0.0
-0.150000000000001 -0.38685201530883073 0.0
-0.05000000000000099 -0.1579447116805761 0.0
-0.316666666666665 -0.4263024345427512 0.0
-0.26666666666666505 -0.45520973817100574 0.0
-0.416666666666665 -0.4763024345427511 0.0
-0.399999999999999 -0.3499999999999992 0.0
-0.349999999999999 -0.39999999999999913 0.0
-0.449999999999999 -0.44999999999999907 0.0
-0.183333333333335 -0.3718764048376757 0.0
-0.23333333333333495 -0.34296910120942115 0.0
-0.08333333333333498 -0.14296910120942108 0.0
-0.266666666666669 -0.3166666666666691 0.0
-0.316666666666669 -0.2666666666666691 0.0
-0.11666666666666897 -0.11666666666666903 0.0
-0.38685201530883073 -0.150000000000001 0.0
-0.4028715430940405 -0.10000000000000098 0.0
-0.15794471168057614 -0.05000000000000099 0.0
-0.40990244188462244 -0.06666666666666698 0.0
-0.41497561047115805 -0.016666666666666996 0.0
-0.16497561047115805 -0.016666666666666996 0.0
0.40990244188461744 -0.06666666666666698 0.0
0.1649756104711531 -0.016666666666666996 0.0
0.4149756104711531 -0.016666666666666996 0.0
0.3868520153088258 -0.15 0.0
0.15794471168057128 -0.04999999999999999 0.0
0.4028715430940356 -0.09999999999999998 0.0
0.45520973817100663 -0.266666666666667 0.0
0.47630243454275206 -0.41666666666666696 0.0
0.4263024345427521 -0.316666666666667 0.0
0.3429691012094165 -0.23333333333333298 0.0
0.1429691012094165 -0.08333333333333301 0.0
0.3718764048376711 -0.18333333333333302 0.0
0.400000000000001 -0.35 0.0
0.450000000000001 -0.45 0.0
0.350000000000001 -0.4 0.0
0.316666666666668 -0.4263024345427515 0.0
0.41666666666666796 -0.47630243454275145 0.0
0.266666666666668 -0.4552097381710061 0.0
0.266666666666665 -0.31666666666666604 0.0
0.11666666666666503 -0.11666666666666603 0.0
0.316666666666665 -0.26666666666666594 0.0
0.18333333333333202 -0.37187640483767165 0.0
0.08333333333333201 -0.14296910120941708 0.0
0.233333333333332 -0.34296910120941715 0.0
0.233333333333335 -0.47018534864216077 0.0
0.38333333333333497 -0.49127804501390626 0.0
0.18333333333333499 -0.48620487642737065 0.0
0.150000000000002 -0.4932357752179525 0.0
0.350000000000002 -0.4983089438044881 0.0
0.10000000000000198 -0.4983089438044881 0.0
0.09999999999999902 -0.40287154309403594 0.0
0.04999999999999902 -0.1579447116805716 0.0
0.149999999999999 -0.3868520153088262 0.0
0.016666666666666996 -0.1649756104711531 0.0
0.06666666666666698 -0.40990244188461744 0.0
0.016666666666666996 -0.4149756104711531 0.0
0.4983089438044881 -0.350000000000002 0.0
0.4932357752179525 -0.15000000000000197 0.0
0.4983089438044881 -0.10000000000000198 0.0
0.4862048764273709 -0.183333333333334 0.0
0.4912780450139066 -0.38333333333333397 0.0
0.4701853486421611 -0.233333333333334 0.0
0.6056624327025937 -0.39433756729740643 0.0
0.8943375672974065 -0.39433756729740643 0.0
0.6056624327025937 -0.10566243270259357 0.0
0.8943375672974065 -0.10566243270259357 0.0
-0.8943375672974065 0.10566243270259357 0.0
-0.6056624327025937 0.10566243270259357 0.0
-0.8943375672974065 0.39433756729740643 0.0
-0.6056624327025937 0.39433756729740643 0.0
-0.016666666666666996 0.1649756104711531 0.0
-0.06666666666666698 0.40990244188461744 0.0
-0.016666666666666996 0.4149756104711531 0.0
-0.099999999999999 0.40287154309403594 0.0
-0.04999999999999899 0.1579447116805716 0.0
-0.149999999999999 0.3868520153088262 0.0
-0.316666666666668 0.4263024345427515 0.0
-0.41666666666666796 0.47630243454275145 0.0
-0.266666666666668 0.4552097381710061 0.0
-0.18333333333333202 0.3718764048376717 0.0
-0.08333333333333201 0.14296910120941708 0.0
-0.233333333333332 0.3429691012094171 0.0
-0.266666666666665 0.316666666666666 0.0
-0.11666666666666503 0.11666666666666603 0.0
-0.3166666666666651 0.266666666666666 0.0
-0.34296910120941654 0.233333333333333 0.0
-0.14296910120941653 0.08333333333333301 0.0
-0.3718764048376711 0.18333333333333302 0.0
-0.400000000000001 0.35 0.0
-0.450000000000001 0.45 0.0
-0.350000000000001 0.4 0.0
-0.45520973817100663 0.266666666666667 0.0
-0.47630243454275206 0.41666666666666696 0.0
-0.4263024345427521 0.316666666666667 0.0
-0.3868520153088258 0.15 0.0
-0.15794471168057125 0.04999999999999999 0.0
-0.4028715430940356 0.1 0.0
-0.40990244188461744 0.06666666666666701 0.0
-0.1649756104711531 0.016666666666666996 0.0
-0.4149756104711531 0.016666666666666996 0.0
-0.48620487642737087 0.18333333333333401 0.0
-0.4912780450139066 0.38333333333333397 0.0
-0.4701853486421611 0.23333333333333398 0.0
-0.4983089438044881 0.350000000000002 0.0
-0.4932357752179525 0.150000000000002 0.0
-0.4983089438044881 0.10000000000000198 0.0
-0.15000000000000197 0.4932357752179525 0.0
-0.350000000000002 0.4983089438044881 0.0
-0.10000000000000198 0.4983089438044881 0.0
-0.233333333333335 0.4701853486421608 0.0
-0.38333333333333497 0.49127804501390626 0.0
-0.18333333333333499 0.48620487642737054 0.0
0.100000000000001 0.4028715430940405 0.0
0.150000000000001 0.3868520153088306 0.0
0.05000000000000098 0.15794471168057606 0.0
0.016666666666666996 0.41497561047115805 0.0
0.06666666666666698 0.40990244188462244 0.0
0.016666666666666996 0.16497561047115805 0.0
0.31666666666666504 0.42630243454275096 0.0
0.26666666666666505 0.4552097381710055 0.0
0.416666666666665 0.476302434542751 0.0
0.18333333333333499 0.3718764048376755 0.0
0.233333333333335 0.3429691012094209 0.0
0.08333333333333498 0.14296910120942097 0.0
0.40990244188462244 0.06666666666666701 0.0
0.41497561047115805 0.016666666666666996 0.0
0.16497561047115805 0.016666666666666996 0.0
0.3868520153088306 0.150000000000001 0.0
0.40287154309404044 0.10000000000000098 0.0
0.15794471168057606 0.05000000000000098 0.0
0.4983089438044881 0.09999999999999704 0.0
0.4932357752179525 0.14999999999999705 0.0
0.4983089438044881 0.34999999999999704 0.0
0.4862048764273705 0.18333333333333102 0.0
0.47018534864216066 0.23333333333333103 0.0
0.49127804501390615 0.38333333333333103 0.0
0.34296910120942103 0.23333333333333484 0.0
0.3718764048376755 0.18333333333333496 0.0
0.142969101209421 0.08333333333333495 0.0
0.266666666666669 0.3166666666666689 0.0
0.316666666666669 0.2666666666666688 0.0
0.11666666666666897 0.11666666666666892 0.0
0.4552097381710055 0.266666666666665 0.0
0.4263024345427511 0.3166666666666649 0.0
0.47630243454275095 0.4166666666666649 0.0
0.399999999999999 0.3499999999999988 0.0
0.349999999999999 0.3999999999999988 0.0
0.449999999999999 0.44999999999999896 0.0
0.23333333333333103 0.47018534864216066 0.0
0.18333333333333102 0.4862048764273705 0.0
0.38333333333333103 0.49127804501390615 0.0
0.14999999999999705 0.4932357752179525 0.0
0.09999999999999704 0.4983089438044881 0.0
0.34999999999999704 0.4983089438044881 0.0
0.6056624327025937 0.10566243270259357 0.0
0.8943375672974065 0.10566243270259357 0.0
0.6056624327025937 0.39433756729740643 0.0
0.8943375672974065 0.39433756729740643 0.0
-0.8943375672974065 0.6056624327025936 0.0
-0.6056624327025937 0.6056624327025936 0.0
-0.8943375672974065 0.8943375672974065 0.0
-0.6056624327025937 0.8943375672974065 0.0
-0.39433756729740643 0.6056624327025936 0.0
-0.10566243270259357 0.6056624327025936 0.0
-0.39433756729740643 0.8943375672974065 0.0
-0.10566243270259357 0.8943375672974065 0.0
0.10566243270259357 0.6056624327025936 0.0
0.39433756729740643 0.6056624327025936 0.0
0.10566243270259357 0.8943375672974065 0.0
0.39433756729740643 0.8943375672974065 0.0
0.6056624327025937 0.6056624327025936 0.0
0.8943375672974065 0.6056624327025936 0.0
0.6056624327025937 0.8943375672974065 0.0
0.8943375672974065 0.8943375672974065 0.0


POINT_DATA 216
SCALARS element_ids double 1
LOOKUP_TABLE default
0
0
0
0
1
1
1
1
2
2
2
2
3
3
3
3
4
4
4
4
5
5
5
5
5
5
5
5
5
5
5
5
5
5
5
5
5
5
5
5
5
5
5
5
5
5
5
5
5
5
5
5
5
5
5
5
5
5
5
5
5
5
6
6
6
6
6
6
6
6
6
6
6
6
6
6
6
6
6
6
6
6
6
6
6
6
6
6
6
6
6
6
6
6
6
6
6
6
6
6
6
6
6
6
7
7
7
7
8
8
8
8
9
9
9
9
9
9
9
9
9
9
9
9
9
9
9
9
9
9
9
9
9
9
9
9
9
9
9
9
9
9
9
9
9
9
9
9
9
9
9
9
9
9
10
10
10
10
10
10
10
10
10
10
10
10
10
10
10
10
10
10
10
10
10
10
10
10
10
10
10
10
10
10
10
10
10
10
10
10
10
10
10
10
10
10
11
11
11
11
12
12
12
12
13
13
13
13
14
14
14
14
15
15
15
15

