# vtk DataFile Version 4.1
Header:
ASCII

DATASET UNSTRUCTURED_GRID
POINTS 56 double
-0.02113248654051872 -0.49785582666254513 0.0
-0.07886751345948127 -0.49199783616438364 0.0
-0.1211324865405187 -0.4830830137208006 0.0
-0.1788675134594813 -0.4645852563626375 0.0
-0.2211324865405187 -0.44559694315957366 0.0
-0.2788675134594813 -0.41221766409693567 0.0
-0.32113248654051874 -0.37886751345948144 0.0
-0.3788675134594813 -0.3211324865405189 0.0
-0.4122176640969356 -0.27886751345948146 0.0
-0.44559694315957366 -0.22113248654051876 0.0
-0.4645852563626375 -0.1788675134594813 0.0
-0.4830830137208006 -0.1211324865405187 0.0
-0.49199783616438364 -0.07886751345948127 0.0
-0.49785582666254513 -0.02113248654051872 0.0
0.02113248654051872 -0.49785582666254513 0.0
0.07886751345948127 -0.49199783616438364 0.0
0.12113248654051874 -0.48308301372080054 0.0
0.1788675134594813 -0.4645852563626374 0.0
0.2211324865405187 -0.4455969431595736 0.0
0.2788675134594813 -0.4122176640969356 0.0
0.32113248654051874 -0.37886751345948133 0.0
0.37886751345948133 -0.32113248654051874 0.0
0.4122176640969356 -0.2788675134594813 0.0
0.44559694315957366 -0.22113248654051873 0.0
0.4645852563626374 -0.1788675134594813 0.0
0.48308301372080054 -0.1211324865405187 0.0
0.49199783616438364 -0.07886751345948129 0.0
0.49785582666254513 -0.02113248654051872 0.0
-0.49785582666254513 0.02113248654051872 0.0
-0.49199783616438364 0.07886751345948127 0.0
-0.48308301372080054 0.12113248654051874 0.0
-0.4645852563626374 0.1788675134594813 0.0
-0.4455969431595736 0.2211324865405187 0.0
-0.4122176640969356 0.2788675134594813 0.0
-0.37886751345948133 0.32113248654051874 0.0
-0.32113248654051874 0.37886751345948133 0.0
-0.2788675134594813 0.4122176640969356 0.0
-0.22113248654051873 0.44559694315957366 0.0
-0.1788675134594813 0.4645852563626374 0.0
-0.1211324865405187 0.48308301372080054 0.0
-0.07886751345948129 0.49199783616438364 0.0
-0.02113248654051872 0.49785582666254513 0.0
0.49785582666254513 0.02113248654051872 0.0
0.49199783616438364 0.07886751345948129 0.0
0.4830830137208004 0.12113248654051872 0.0
0.46458525636263726 0.1788675134594813 0.0
0.44559694315957354 0.22113248654051867 0.0
0.4122176640969356 0.27886751345948113 0.0
0.37886751345948133 0.3211324865405185 0.0
0.32113248654051874 0.3788675134594811 0.0
0.2788675134594813 0.4122176640969354 0.0
0.22113248654051867 0.44559694315957343 0.0
0.1788675134594813 0.46458525636263726 0.0
0.12113248654051872 0.4830830137208004 0.0
0.07886751345948129 0.49199783616438364 0.0
0.02113248654051872 0.49785582666254513 0.0


POINT_DATA 56
SCALARS element_ids double 1
LOOKUP_TABLE default
5
5
5
5
5
5
5
5
5
5
5
5
5
5
6
6
6
6
6
6
6
6
6
6
6
6
6
6
9
9
9
9
9
9
9
9
9
9
9
9
9
9
10
10
10
10
10
10
10
10
10
10
10
10
10
10

