# vtk DataFile Version 4.1
Header:
ASCII

DATASET UNSTRUCTURED_GRID
POINTS 32 double
0 -0.5 0
-0.09999999999999998 -0.48985366282692877 0
-0.2 -0.45781460725650924 0
-0.3 -0.40000000000000013 0
-0.4 -0.30000000000000016 0
-0.45781460725650924 -0.2 0
-0.48985366282692877 -0.09999999999999998 0
-0.5 0 0
0 -0.5 0
0.1 -0.48985366282692877 0
0.2 -0.45781460725650913 0
0.3 -0.4000000000000001 0
0.4 -0.3 0
0.4578146072565092 -0.2 0
0.48985366282692866 -0.09999999999999998 0
0.5 0 0
-0.5 0 0
-0.48985366282692877 0.1 0
-0.45781460725650913 0.2 0
-0.4000000000000001 0.3 0
-0.3 0.4 0
-0.2 0.4578146072565092 0
-0.09999999999999998 0.48985366282692866 0
0 0.5 0
0.5 0 0
0.4898536628269287 0.1 0
0.457814607256509 0.2 0
0.4 0.29999999999999977 0
0.3 0.39999999999999986 0
0.2 0.457814607256509 0
0.1 0.4898536628269287 0
0 0.5 0

CELLS 28 84
2 0 1
2 1 2
2 2 3
2 3 4
2 4 5
2 5 6
2 6 7
2 8 9
2 9 10
2 10 11
2 11 12
2 12 13
2 13 14
2 14 15
2 16 17
2 17 18
2 18 19
2 19 20
2 20 21
2 21 22
2 22 23
2 24 25
2 25 26
2 26 27
2 27 28
2 28 29
2 29 30
2 30 31

CELL_TYPES 28
3
3
3
3
3
3
3
3
3
3
3
3
3
3
3
3
3
3
3
3
3
3
3
3
3
3
3
3


POINT_DATA 32
SCALARS elementID double 1
LOOKUP_TABLE default
5
5
5
5
5
5
5
5
6
6
6
6
6
6
6
6
9
9
9
9
9
9
9
9
10
10
10
10
10
10
10
10

SCALARS lsm_geometryID double 1
LOOKUP_TABLE default
0
0
0
0
0
0
0
0
0
0
0
0
0
0
0
0
0
0
0
0
0
0
0
0
0
0
0
0
0
0
0
0

