# vtk DataFile Version 4.1
Header:
ASCII

DATASET UNSTRUCTURED_GRID
POINTS 1600 double
-0.975 -0.9749999999999999 0.0
-0.9750000000000001 -0.925 0.0
-0.9749999999999999 -0.8749999999999999 0.0
-0.975 -0.825 0.0
-0.975 -0.7749999999999999 0.0
-0.9749999999999999 -0.725 0.0
-0.9749999999999999 -0.6749999999999999 0.0
-0.9749999999999999 -0.6249999999999999 0.0
-0.975 -0.575 0.0
-0.975 -0.5249999999999999 0.0
-0.925 -0.975 0.0
-0.9249999999999998 -0.9249999999999998 0.0
-0.925 -0.875 0.0
-0.9249999999999998 -0.825 0.0
-0.925 -0.7750000000000001 0.0
-0.925 -0.7250000000000001 0.0
-0.925 -0.675 0.0
-0.9249999999999998 -0.625 0.0
-0.925 -0.575 0.0
-0.925 -0.525 0.0
-0.8749999999999999 -0.975 0.0
-0.875 -0.925 0.0
-0.875 -0.875 0.0
-0.8749999999999998 -0.8249999999999998 0.0
-0.8750000000000001 -0.7750000000000001 0.0
-0.875 -0.7250000000000001 0.0
-0.875 -0.6749999999999999 0.0
-0.875 -0.625 0.0
-0.875 -0.575 0.0
-0.8749999999999999 -0.5249999999999999 0.0
-0.825 -0.975 0.0
-0.825 -0.9249999999999998 0.0
-0.8249999999999998 -0.875 0.0
-0.825 -0.825 0.0
-0.825 -0.775 0.0
-0.825 -0.725 0.0
-0.825 -0.6749999999999999 0.0
-0.8249999999999998 -0.625 0.0
-0.825 -0.575 0.0
-0.825 -0.5249999999999999 0.0
-0.7749999999999999 -0.975 0.0
-0.7750000000000001 -0.9250000000000002 0.0
-0.7750000000000001 -0.875 0.0
-0.7749999999999999 -0.825 0.0
-0.7750000000000001 -0.7750000000000001 0.0
-0.7750000000000001 -0.7250000000000001 0.0
-0.7750000000000001 -0.675 0.0
-0.775 -0.625 0.0
-0.7750000000000001 -0.5750000000000001 0.0
-0.7749999999999999 -0.5249999999999999 0.0
-0.725 -0.975 0.0
-0.725 -0.9250000000000002 0.0
-0.7250000000000001 -0.875 0.0
-0.7250000000000001 -0.825 0.0
-0.7250000000000001 -0.7750000000000001 0.0
-0.7250000000000001 -0.7250000000000001 0.0
-0.7250000000000001 -0.675 0.0
-0.725 -0.625 0.0
-0.7250000000000001 -0.5750000000000001 0.0
-0.725 -0.5249999999999999 0.0
-0.6749999999999998 -0.975 0.0
-0.675 -0.9250000000000002 0.0
-0.675 -0.875 0.0
-0.6749999999999999 -0.825 0.0
-0.675 -0.775 0.0
-0.675 -0.7250000000000001 0.0
-0.675 -0.675 0.0
-0.6749999999999999 -0.625 0.0
-0.675 -0.5750000000000001 0.0
-0.6749999999999999 -0.5249999999999999 0.0
-0.6249999999999999 -0.9749999999999999 0.0
-0.6249999999999999 -0.9249999999999999 0.0
-0.625 -0.875 0.0
-0.6249999999999999 -0.8249999999999998 0.0
-0.6249999999999999 -0.775 0.0
-0.625 -0.725 0.0
-0.625 -0.675 0.0
-0.6249999999999999 -0.6249999999999999 0.0
-0.625 -0.575 0.0
-0.6249999999999999 -0.5249999999999999 0.0
-0.5749999999999998 -0.975 0.0
-0.575 -0.9249999999999999 0.0
-0.5750000000000001 -0.875 0.0
-0.575 -0.825 0.0
-0.5750000000000001 -0.775 0.0
-0.5750000000000001 -0.7250000000000001 0.0
-0.5750000000000001 -0.675 0.0
-0.575 -0.625 0.0
-0.5750000000000001 -0.575 0.0
-0.575 -0.5249999999999999 0.0
-0.5249999999999999 -0.9749999999999999 0.0
-0.5249999999999999 -0.925 0.0
-0.5249999999999999 -0.8749999999999999 0.0
-0.5249999999999999 -0.825 0.0
-0.5249999999999999 -0.7749999999999999 0.0
-0.5249999999999999 -0.725 0.0
-0.5249999999999999 -0.6749999999999999 0.0
-0.5249999999999999 -0.6249999999999999 0.0
-0.525 -0.575 0.0
-0.5249999999999999 -0.5249999999999999 0.0
-0.475 -0.9749999999999999 0.0
-0.475 -0.925 0.0
-0.475 -0.8749999999999999 0.0
-0.475 -0.825 0.0
-0.475 -0.7749999999999999 0.0
-0.475 -0.725 0.0
-0.475 -0.6749999999999999 0.0
-0.4749999999999999 -0.6249999999999999 0.0
-0.475 -0.575 0.0
-0.475 -0.5249999999999999 0.0
-0.425 -0.975 0.0
-0.42499999999999993 -0.9249999999999998 0.0
-0.425 -0.875 0.0
-0.42499999999999993 -0.825 0.0
-0.42500000000000004 -0.7750000000000001 0.0
-0.42500000000000004 -0.7250000000000001 0.0
-0.42500000000000004 -0.675 0.0
-0.42499999999999993 -0.625 0.0
-0.425 -0.575 0.0
-0.425 -0.525 0.0
-0.37499999999999994 -0.975 0.0
-0.375 -0.925 0.0
-0.375 -0.875 0.0
-0.375 -0.8249999999999998 0.0
-0.375 -0.7750000000000001 0.0
-0.375 -0.7250000000000001 0.0
-0.375 -0.6749999999999999 0.0
-0.375 -0.625 0.0
-0.375 -0.575 0.0
-0.37499999999999994 -0.5249999999999999 0.0
-0.32499999999999996 -0.975 0.0
-0.32499999999999996 -0.9249999999999998 0.0
-0.32499999999999996 -0.875 0.0
-0.32499999999999996 -0.825 0.0
-0.32499999999999996 -0.775 0.0
-0.32499999999999996 -0.725 0.0
-0.32499999999999996 -0.6749999999999999 0.0
-0.32499999999999996 -0.625 0.0
-0.32499999999999996 -0.575 0.0
-0.32499999999999996 -0.5249999999999999 0.0
-0.27499999999999997 -0.975 0.0
-0.275 -0.9250000000000002 0.0
-0.275 -0.875 0.0
-0.275 -0.825 0.0
-0.275 -0.7750000000000001 0.0
-0.275 -0.7250000000000001 0.0
-0.275 -0.675 0.0
-0.275 -0.625 0.0
-0.275 -0.5750000000000001 0.0
-0.27499999999999997 -0.5249999999999999 0.0
-0.225 -0.975 0.0
-0.225 -0.9250000000000002 0.0
-0.225 -0.875 0.0
-0.225 -0.825 0.0
-0.22500000000000003 -0.7750000000000001 0.0
-0.22500000000000003 -0.7250000000000001 0.0
-0.22500000000000003 -0.675 0.0
-0.225 -0.625 0.0
-0.22500000000000003 -0.5750000000000001 0.0
-0.225 -0.5249999999999999 0.0
-0.17499999999999996 -0.975 0.0
-0.17499999999999996 -0.9250000000000002 0.0
-0.17499999999999996 -0.875 0.0
-0.17499999999999996 -0.825 0.0
-0.175 -0.775 0.0
-0.175 -0.7250000000000001 0.0
-0.175 -0.675 0.0
-0.17499999999999996 -0.625 0.0
-0.175 -0.5750000000000001 0.0
-0.17499999999999996 -0.5249999999999999 0.0
-0.12499999999999996 -0.9749999999999999 0.0
-0.12499999999999997 -0.9249999999999999 0.0
-0.12499999999999997 -0.875 0.0
-0.12499999999999997 -0.8249999999999998 0.0
-0.12499999999999997 -0.775 0.0
-0.12499999999999997 -0.725 0.0
-0.12499999999999999 -0.675 0.0
-0.12499999999999996 -0.6249999999999999 0.0
-0.12499999999999997 -0.575 0.0
-0.12499999999999996 -0.5249999999999999 0.0
-0.07499999999999998 -0.975 0.0
-0.07499999999999998 -0.9249999999999999 0.0
-0.07499999999999998 -0.875 0.0
-0.07499999999999998 -0.825 0.0
-0.07499999999999998 -0.775 0.0
-0.07499999999999998 -0.7250000000000001 0.0
-0.07499999999999998 -0.675 0.0
-0.07499999999999998 -0.625 0.0
-0.07499999999999998 -0.575 0.0
-0.07499999999999998 -0.5249999999999999 0.0
-0.024999999999999994 -0.9749999999999999 0.0
-0.024999999999999994 -0.925 0.0
-0.024999999999999994 -0.8749999999999999 0.0
-0.024999999999999994 -0.825 0.0
-0.024999999999999994 -0.7749999999999999 0.0
-0.024999999999999994 -0.725 0.0
-0.024999999999999994 -0.6749999999999999 0.0
-0.024999999999999994 -0.6249999999999999 0.0
-0.024999999999999994 -0.575 0.0
-0.024999999999999994 -0.5249999999999999 0.0
0.024999999999999994 -0.9749999999999999 0.0
0.024999999999999994 -0.925 0.0
0.024999999999999994 -0.8749999999999999 0.0
0.024999999999999994 -0.825 0.0
0.024999999999999994 -0.7749999999999999 0.0
0.024999999999999994 -0.725 0.0
0.024999999999999994 -0.6749999999999999 0.0
0.024999999999999994 -0.6249999999999999 0.0
0.024999999999999994 -0.575 0.0
0.024999999999999994 -0.5249999999999999 0.0
0.07500000000000001 -0.975 0.0
0.07500000000000001 -0.9249999999999998 0.0
0.07500000000000001 -0.875 0.0
0.07500000000000001 -0.825 0.0
0.07500000000000001 -0.7750000000000001 0.0
0.07500000000000001 -0.7250000000000001 0.0
0.07500000000000001 -0.675 0.0
0.07500000000000001 -0.625 0.0
0.07500000000000001 -0.575 0.0
0.07500000000000001 -0.525 0.0
0.125 -0.975 0.0
0.125 -0.925 0.0
0.125 -0.875 0.0
0.125 -0.8249999999999998 0.0
0.125 -0.7750000000000001 0.0
0.125 -0.7250000000000001 0.0
0.125 -0.6749999999999999 0.0
0.125 -0.625 0.0
0.125 -0.575 0.0
0.125 -0.5249999999999999 0.0
0.17500000000000002 -0.975 0.0
0.17500000000000002 -0.9249999999999998 0.0
0.17500000000000002 -0.875 0.0
0.175 -0.825 0.0
0.17500000000000004 -0.775 0.0
0.17500000000000004 -0.725 0.0
0.17500000000000002 -0.6749999999999999 0.0
0.175 -0.625 0.0
0.17500000000000002 -0.575 0.0
0.17500000000000002 -0.5249999999999999 0.0
0.225 -0.975 0.0
0.225 -0.9250000000000002 0.0
0.225 -0.875 0.0
0.225 -0.825 0.0
0.22500000000000003 -0.7750000000000001 0.0
0.22500000000000003 -0.7250000000000001 0.0
0.22500000000000003 -0.675 0.0
0.225 -0.625 0.0
0.22500000000000003 -0.5750000000000001 0.0
0.225 -0.5249999999999999 0.0
0.27499999999999997 -0.975 0.0
0.275 -0.9250000000000002 0.0
0.275 -0.875 0.0
0.275 -0.825 0.0
0.275 -0.7750000000000001 0.0
0.275 -0.7250000000000001 0.0
0.275 -0.675 0.0
0.275 -0.625 0.0
0.275 -0.5750000000000001 0.0
0.27499999999999997 -0.5249999999999999 0.0
0.325 -0.975 0.0
0.32500000000000007 -0.9250000000000002 0.0
0.32500000000000007 -0.875 0.0
0.32500000000000007 -0.825 0.0
0.32500000000000007 -0.775 0.0
0.32500000000000007 -0.7250000000000001 0.0
0.32500000000000007 -0.675 0.0
0.32500000000000007 -0.625 0.0
0.3250000000000001 -0.5750000000000001 0.0
0.325 -0.5249999999999999 0.0
0.37499999999999994 -0.9749999999999999 0.0
0.375 -0.9249999999999999 0.0
0.375 -0.875 0.0
0.375 -0.8249999999999998 0.0
0.375 -0.775 0.0
0.375 -0.725 0.0
0.375 -0.675 0.0
0.375 -0.6249999999999999 0.0
0.375 -0.575 0.0
0.37499999999999994 -0.5249999999999999 0.0
0.425 -0.975 0.0
0.42500000000000004 -0.9249999999999999 0.0
0.42500000000000004 -0.875 0.0
0.42500000000000004 -0.825 0.0
0.42500000000000004 -0.775 0.0
0.42500000000000004 -0.7250000000000001 0.0
0.4250000000000001 -0.675 0.0
0.42500000000000004 -0.625 0.0
0.42500000000000004 -0.575 0.0
0.425 -0.5249999999999999 0.0
0.475 -0.9749999999999999 0.0
0.475 -0.925 0.0
0.475 -0.8749999999999999 0.0
0.475 -0.825 0.0
0.475 -0.7749999999999999 0.0
0.475 -0.725 0.0
0.475 -0.6749999999999999 0.0
0.4749999999999999 -0.6249999999999999 0.0
0.475 -0.575 0.0
0.475 -0.5249999999999999 0.0
0.5249999999999999 -0.9749999999999999 0.0
0.525 -0.925 0.0
0.5249999999999999 -0.8749999999999999 0.0
0.5249999999999999 -0.825 0.0
0.5249999999999999 -0.7749999999999999 0.0
0.5249999999999999 -0.725 0.0
0.5249999999999999 -0.6749999999999999 0.0
0.5249999999999999 -0.6249999999999999 0.0
0.5249999999999999 -0.575 0.0
0.5249999999999999 -0.5249999999999999 0.0
0.575 -0.975 0.0
0.575 -0.9249999999999998 0.0
0.575 -0.875 0.0
0.575 -0.825 0.0
0.5750000000000001 -0.7750000000000001 0.0
0.5750000000000001 -0.7250000000000001 0.0
[...]
POINT_DATA 1600
SCALARS level_set double 1
LOOKUP_TABLE default
0.8795555434836169
0.8446650845375221
0.8107920163195398
0.7779363388296698
0.7462652569272541
0.7157787706122929
0.6866664280627577
0.6589282292786487
0.6327734086867196
0.6082019662869707
0.8446650845375221
0.8088448653649618
0.7740200181542776
0.7401905429054689
0.7075307187652224
0.6760405457335383
0.6459207523436876
0.6171713385956709
0.5900176632316215
0.5644597262515396
0.8107920163195398
0.7740200181542776
0.7382160907747451
0.7033802341809426
0.669693032948711
0.6371544870780502
0.6059761698518892
0.576158081270228
0.5479422249534082
0.5213286009014295
0.7779363388296697
0.740190542905469
0.7033802341809425
0.6675054126560905
0.6327521994777192
0.5991205946458287
0.5668326805873622
0.5358884573023202
0.5065470938520795
0.4788085902366401
0.7462652569272541
0.7075307187652224
0.669693032948711
0.6327521994777192
0.5968984143992652
0.5621316777133487
0.5286833848858734
0.4965535359168392
0.4660181377193194
0.4370771902933138
0.7157787706122929
0.6760405457335383
0.6371544870780501
0.5991205946458287
0.5621316777133487
0.5261877362806103
0.4915282827474224
0.45815331711378515
0.42635535655512785
0.3961344010714507
0.6866664280627577
0.6459207523436876
0.6059761698518892
0.5668326805873622
0.5286833848858733
0.49152828274742244
0.45561251592188035
0.42093608440924724
0.38780606072116386
0.3562224448576301
0.6589282292786487
0.6171713385956709
0.576158081270228
0.5358884573023202
0.49655353591683926
0.45815331711378515
0.42093608440924724
0.3849018378032256
0.35037025021742735
0.31734132165185225
0.6327734086867196
0.5900176632316216
0.5479422249534082
0.5065470938520795
0.4660181377193193
0.4263553565551279
0.38780606072116386
0.3503702502174274
0.31437561397157837
0.2798221519836167
0.6082019662869707
0.5644597262515397
0.5213286009014295
0.47880859023664
0.4370771902933138
0.3961344010714507
0.35622244485763016
0.31734132165185225
0.27982215198361676
0.2436649358529236
0.5854362253440917
0.5407412121939823
0.49658412487775183
0.45296496339540016
0.4100492466745834
0.36783697471530163
0.32655970141829505
0.28621742678356404
0.24713676505608184
0.20931771623584852
0.5644761858580827
0.5188621210589495
0.4737087968823751
0.4290162133283597
0.3849343068631282
0.34146307748668064
0.2988178304031588
0.25699856561256273
0.21631945318897366
0.17678049313239153
0.5455455777565386
0.499071965683737
0.452981491456221
0.40727415507399045
0.36208127985440364
0.31740286579746047
0.2734321914847623
0.23016925691630916
0.18790537101871096
0.1466405337919677
0.5286444010394593
0.48137074606834507
0.43440220859928946
0.3877387886322924
0.34149016564840967
0.2956563396476411
0.2504027846631056
0.20572950069480328
0.16189451854529377
0.11889783821457704
0.5139807441284997
0.46599430468963826
0.41823970427258017
0.3707169428773254
0.32351310417772494
0.276628188173779
0.23019659211532237
0.18421831600235522
0.13890951153234377
0.09427017870528798
0.5015546070236598
0.4529426415476166
0.4044939784760931
0.35620861780908936
0.3081500954423497
0.2603184113758742
0.2128136138414126
0.16563570283896495
0.11895034997986093
0.07275755526410049
0.4915374788628055
0.4424128014545365
0.39339341895032975
0.34447933135018516
0.2957129499107536
0.24709427463203498
0.1986913808151848
0.15050426846020315
0.10264874630576114
0.05512481435185864
0.4839293596459367
0.43440478441039787
0.38493802569528995
0.33552908350061283
0.2862016675829367
0.23695577794226122
0.18782989303663894
0.1388240128660699
0.09000470051004443
0.041371955968562454
0.47884397502812664
0.4290505819162464
0.3792827468008275
0.32954046968187
0.2798345198142711
0.23016489719803074
0.1805493618605245
0.13098791380175245
0.08151200820913954
0.03212164508268577
0.47628132500937553
0.4263501939720822
0.3764275822669425
0.32651348989395673
0.2766115066047571
0.2267216323993436
0.17684978728684142
0.12699597126725076
0.07717066940304651
0.027373881694228587
0.47628132500937553
0.4263501939720822
0.3764275822669425
0.3265134898939567
0.27661150660475703
0.22672163239934356
0.17684978728684142
0.12699597126725076
0.07717066940304651
0.027373881694228587
0.47884397502812664
0.4290505819162464
0.3792827468008275
0.32954046968187
0.27983451981427115
0.23016489719803074
0.18054936186052448
0.13098791380175245
0.08151200820913954
0.03212164508268577
0.4839293596459366
0.43440478441039787
0.38493802569528995
0.33552908350061283
0.28620166758293664
0.23695577794226125
0.18782989303663894
0.13882401286606993
0.09000470051004442
0.04137195596856248
0.4915374788628056
0.44241280145453654
0.3933934189503298
0.3444793313501852
0.29571294991075364
0.24709427463203507
0.19869138081518484
0.15050426846020323
0.10264874630576118
0.055124814351858724
0.50155460702366
0.45294264154761665
0.40449397847609314
0.35620861780908936
0.3081500954423497
0.2603184113758743
0.21281361384141267
0.165635702838965
0.11895034997986095
0.07275755526410058
0.5139807441284998
0.4659943046896384
0.4182397042725802
0.37071694287732543
0.32351310417772494
0.276628188173779
0.2301965921153224
0.18421831600235528
0.1389095115323438
0.09427017870528806
0.5286444010394594
0.4813707460683452
0.4344022085992895
0.38773878863229244
0.34149016564840967
0.29565633964764115
0.25040278466310567
0.20572950069480334
0.16189451854529383
0.1188978382145772
0.5455455777565388
0.49907196568373724
0.45298149145622124
0.4072741550739906
0.3620812798544038
0.3174028657974606
0.27343219148476233
0.23016925691630924
0.1879053710187111
0.1466405337919679
0.5644761858580828
0.5188621210589496
0.4737087968823752
0.4290162133283599
0.38493430686312835
0.3414630774866807
0.29881783040315885
0.25699856561256285
0.21631945318897375
0.1767804931323917
0.5854362253440917
0.5407412121939823
0.49658412487775183
0.45296496339540016
0.4100492466745835
0.36783697471530163
0.32655970141829516
0.28621742678356404
0.2471367650560819
0.20931771623584858
0.6082019662869707
0.5644597262515397
0.5213286009014295
0.4788085902366401
0.4370771902933138
0.3961344010714507
0.3562224448576302
0.31734132165185225
0.27982215198361676
0.24366493585292362
0.6327734086867198
0.5900176632316217
0.5479422249534083
0.5065470938520795
0.4660181377193194
0.42635535655512796
0.3878060607211639
0.35037025021742746
0.3143756139715784
0.2798221519836168
0.6589282292786487
0.617171338595671
0.5761580812702282
0.5358884573023203
0.49655353591683926
0.4581533171137852
0.4209360844092474
0.38490183780322584
0.35037025021742746
0.3173413216518524
0.6866664280627578
0.6459207523436878
0.6059761698518893
0.5668326805873622
0.5286833848858734
0.49152828274742266
0.45561251592188057
0.4209360844092475
0.3878060607211641
0.3562224448576303
0.7157787706122929
0.6760405457335383
0.6371544870780502
0.5991205946458287
0.5621316777133487
0.5261877362806104
0.49152828274742255
0.4581533171137853
0.426355356555128
0.3961344010714508
0.7462652569272541
0.7075307187652226
0.669693032948711
0.6327521994777192
0.5968984143992652
0.5621316777133487
0.5286833848858733
0.49655353591683926
0.46601813771931944
0.4370771902933138
0.7779363388296697
0.740190542905469
0.7033802341809425
0.6675054126560905
0.6327521994777193
0.5991205946458287
0.5668326805873622
0.5358884573023203
0.5065470938520796
0.47880859023664013
0.8107920163195398
0.7740200181542778
0.7382160907747454
0.7033802341809425
0.669693032948711
0.6371544870780502
0.6059761698518892
0.5761580812702282
0.5479422249534084
0.5213286009014296
0.8446650845375221
0.808844865364962
0.7740200181542777
0.740190542905469
0.7075307187652224
0.6760405457335383
0.6459207523436877
0.617171338595671
0.5900176632316217
0.5644597262515398
0.8795555434836169
0.8446650845375221
0.8107920163195398
0.7779363388296698
0.7462652569272541
0.7157787706122928
0.6866664280627577
0.6589282292786488
0.6327734086867197
0.6082019662869708
0.5854362253440917
0.5644761858580827
0.5455455777565386
0.5286444010394593
0.5139807441284997
0.5015546070236598
0.4915374788628055
0.48392935964593664
0.47884397502812664
0.47628132500937553
0.5407412121939823
0.5188621210589495
0.499071965683737
0.4813707460683451
0.46599430468963826
0.4529426415476166
0.44241280145453654
0.43440478441039787
0.4290505819162464
0.4263501939720821
0.49658412487775183
0.4737087968823751
0.452981491456221
0.43440220859928946
0.41823970427258017
0.40449397847609314
0.39339341895032975
0.38493802569528995
0.3792827468008275
0.3764275822669425
0.45296496339540016
0.4290162133283597
0.40727415507399045
0.38773878863229233
0.3707169428773254
0.3562086178090893
0.34447933135018516
0.33552908350061283
0.32954046968187
0.32651348989395673
0.4100492466745834
0.38493430686312824
0.36208127985440364
0.3414901656484096
0.32351310417772494
0.3081500954423497
0.29571294991075364
0.28620166758293664
0.2798345198142711
0.27661150660475703
0.3678369747153016
0.3414630774866807
0.31740286579746047
0.2956563396476411
0.27662818817377904
0.26031841137587425
0.24709427463203498
0.23695577794226122
0.23016489719803074
0.22672163239934356
0.3265597014182951
0.2988178304031588
0.2734321914847623
0.2504027846631056
0.23019659211532237
0.21281361384141262
0.1986913808151848
0.18782989303663894
0.1805493618605245
0.17684978728684145
0.28621742678356404
0.25699856561256273
0.23016925691630913
0.20572950069480328
0.18421831600235528
0.16563570283896498
0.15050426846020315
0.1388240128660699
0.13098791380175245
0.1269959712672508
0.24713676505608184
0.21631945318897366
0.18790537101871096
0.16189451854529377
0.13890951153234377
0.11895034997986093
0.10264874630576114
0.09000470051004442
0.08151200820913954
0.07717066940304651
0.20931771623584855
0.17678049313239153
0.1466405337919677
0.11889783821457704
0.09427017870528798
0.07275755526410049
0.05512481435185864
0.041371955968562454
0.03212164508268577
0.027373881694228587
0.17322006238049217
0.13884380349001277
0.10682210356192917
0.07715496259624136
0.0506637339375674
0.02734841758590729
0.008144095597533004
-0.006949232027555413
-0.017121921880074723
-0.022373973960024923
0.13884380349001277
0.10250938426183734
0.06845008032859531
0.0366658916902867
0.008090177229182049
-0.01727706305471868
-0.03829340995721577
-0.0549588634783092
-0.06621869267914193
-0.07207289755971402
0.10682210356192917
0.06845008032859531
0.0322145558284418
-0.0018844699385314016
-0.03281324248862147
-0.06057176182182844
-0.08376580025994049
-0.10239535780295755
-0.11503260243084956
-0.12167753414361658
0.07715496259624134
0.03666589169028671
-0.0018844699385314016
-0.03849612229021298
-0.07204652521584318
-0.10253567871542202
-0.12827307531064114
-0.1492587150015005
-0.16356365113519766
-0.1711878837117326
0.05066373393756741
0.008090177229182049
-0.03281324248862147
-0.07204652521584318
-0.10846561898997703
-0.1420705238110231
-0.17088660117862883
-0.19491385109279422
-0.2114456070374077
-0.22048186901246927
0.02734841758590729
-0.01727706305471868
-0.06057176182182844
-0.10253567871542202
-0.1420705238110231
-0.17917629710863175
-0.21160637786390368
-0.23936076607683882
-0.25867847013747974
-0.26955949004582663
0.008144095597533004
-0.03829340995721577
-0.08376580025994049
-0.12827307531064114
-0.17088660117862886
-0.21160637786390368
-0.24820959031195294
-0.2806962385227766
-0.3039546719711414
-0.31798489065704716
-0.0069492320275554124
-0.054958863478309194
-0.10239535780295755
-0.14925871500150048
-0.19491385109279422
-0.2393607660768388
-0.2806962385227766
-0.31892026843060767
-0.3472742125383924
-0.3657580708461308
-0.017121921880074723
-0.06621869267914193
-0.11503260243084956
-0.16356365113519766
-0.21144560703740772
-0.25867847013747974
-0.30395467197114134
-0.3472742125383924
-0.38295048711651347
-0.4109834957055045
-0.022373973960024923
-0.07207289755971402
-0.12167753414361658
-0.1711878837117326
-0.22048186901246924
-0.26955949004582663
-0.31798489065704716
-0.3657580708461309
-0.4109834957055045
-0.4536611652351682
-0.022373973960024923
-0.07207289755971402
-0.12167753414361657
-0.1711878837117326
-0.2204818690124693
-0.2695594900458266
-0.3179848906570472
-0.3657580708461308
-0.4109834957055045
-0.45366116523516814
-0.017121921880074723
-0.06621869267914193
-0.11503260243084956
-0.16356365113519764
-0.2114456070374076
-0.25867847013747974
-0.30395467197114134
-0.34727421253839236
-0.38295048711651336
-0.4109834957055044
-0.006949232027555381
-0.05495886347830915
-0.1023953578029575
-0.14925871500150042
-0.19491385109279413
-0.23936076607683873
-0.2806962385227766
-0.3189202684306076
-0.3472742125383923
-0.36575807084613066
0.008144095597533112
-0.03829340995721567
-0.08376580025994038
-0.128273075310641
-0.17088660117862872
-0.21160637786390357
-0.2482095903119528
-0.2806962385227764
-0.3039546719711411
-0.31798489065704694
0.027348417585907402
-0.01727706305471858
-0.06057176182182834
-0.10253567871542191
-0.14207052381102298
-0.17917629710863164
-0.21160637786390354
-0.23936076607683865
-0.25867847013747963
-0.26955949004582647
0.0506637339375675
0.008090177229182129
-0.032813242488621386
-0.07204652521584307
-0.1084656189899769
-0.14207052381102298
-0.17088660117862872
-0.1949138510927941
-0.21144560703740756
-0.22048186901246913
0.07715496259624151
0.036665891690286855
-0.001884469938531256
-0.03849612229021282
-0.072046525215843
-0.10253567871542182
-0.12827307531064094
-0.1492587150015003
-0.16356365113519744
-0.1711878837117324
0.10682210356192938
0.06845008032859552
0.03221455582844199
-0.0018844699385312576
-0.03281324248862132
-0.060571761821828246
-0.08376580025994027
-0.10239535780295733
-0.11503260243084937
-0.12167753414361637
0.13884380349001293
0.1025093842618375
0.06845008032859547
0.036665891690286806
0.008090177229182153
-0.017277063054718534
-0.038293409957215606
-0.05495886347830903
-0.06621869267914177
-0.07207289755971386
0.17322006238049223
0.1388438034900128
0.1068221035619292
0.07715496259624138
0.05066373393756744
0.02734841758590734
0.008144095597533062
-0.006949232027555357
-0.017121921880074668
-0.022373973960024867
0.20931771623584858
0.17678049313239155
0.14664053379196773
0.11889783821457706
0.09427017870528798
0.07275755526410049
0.05512481435185865
0.041371955968562475
0.0321216450826858
0.027373881694228615
0.24713676505608195
0.21631945318897375
0.18790537101871102
0.1618945185452938
0.13890951153234377
0.11895034997986093
0.10264874630576115
0.09000470051004449
0.08151200820913962
0.0771706694030466
0.2862174267835642
0.25699856561256285
0.23016925691630924
0.2057295006948034
0.18421831600235533
0.16563570283896506
0.15050426846020326
0.13882401286607007
0.13098791380175262
0.12699597126725093
0.3265597014182953
0.29881783040315896
0.2734321914847625
0.25040278466310584
0.23019659211532267
0.2128136138414129
0.19869138081518506
0.18782989303663922
0.18054936186052475
0.1768497872868417
0.3678369747153017
0.3414630774866807
0.3174028657974605
0.29565633964764126
0.2766281881737792
0.26031841137587447
0.24709427463203518
0.23695577794226141
0.2301648971980309
0.22672163239934373
0.4100492466745834
0.38493430686312824
0.36208127985440364
0.3414901656484097
0.323513104177725
0.30815009544234984
0.2957129499107537
0.28620166758293675
0.27983451981427115
0.2766115066047571
0.45296496339540027
0.4290162133283598
0.40727415507399056
0.3877387886322924
0.37071694287732543
0.35620861780908947
0.3444793313501853
0.33552908350061295
0.3295404696818701
0.3265134898939568
0.496584124877752
0.4737087968823753
0.4529814914562212
0.4344022085992895
0.4182397042725803
0.4044939784760932
0.39339341895032975
0.38493802569529006
0.3792827468008277
0.3764275822669427
0.5407412121939825
0.5188621210589496
0.49907196568373713
0.4813707460683452
0.4659943046896383
0.4529426415476167
0.4424128014545366
0.434404784410398
0.42905058191624645
0.42635019397208224
0.5854362253440917
0.5644761858580827
0.5455455777565386
0.5286444010394593
0.5139807441284997
0.5015546070236598
0.4915374788628055
0.4839293596459367
0.4788439750281267
0.47628132500937553
0.47628132500937553
0.4788439750281266
0.4839293596459366
0.4915374788628056
0.50155460702366
0.5139807441284998
0.5286444010394595
0.5455455777565388
0.5644761858580828
0.5854362253440917
0.4263501939720821
0.4290505819162464
0.43440478441039787
0.44241280145453654
0.4529426415476166
0.4659943046896384
0.4813707460683452
0.49907196568373724
0.5188621210589496
0.5407412121939823
0.3764275822669425
0.3792827468008275
0.38493802569528995
0.39339341895032975
0.40449397847609314
0.41823970427258017
0.4344022085992895
0.45298149145622124
0.4737087968823752
0.49658412487775183
0.32651348989395673
0.32954046968187006
0.3355290835006129
0.3444793313501852
0.3562086178090893
0.3707169428773254
0.38773878863229244
0.4072741550739906
0.4290162133283599
0.4529649633954002
0.27661150660475703
0.2798345198142711
0.28620166758293664
0.2957129499107537
0.3081500954423498
0.323513104177725
0.3414901656484097
0.3620812798544038
0.38493430686312835
0.4100492466745834
0.22672163239934356
0.23016489719803077
0.23695577794226125
0.24709427463203507
0.2603184113758743
0.276628188173779
0.2956563396476411
0.3174028657974606
0.3414630774866807
0.36783697471530163
0.17684978728684142
0.1805493618605245
0.18782989303663897
0.19869138081518484
0.21281361384141267
0.2301965921153224
0.25040278466310567
0.27343219148476233
0.2988178304031589
0.32655970141829516
0.1269959712672508
0.13098791380175245
0.1388240128660699
0.1505042684602032
0.165635702838965
0.18421831600235522
0.20572950069480334
0.23016925691630924
0.25699856561256285
0.2862174267835641
0.07717066940304651
0.08151200820913954
0.09000470051004442
0.10264874630576118
0.11895034997986095
0.1389095115323438
0.16189451854529385
0.1879053710187111
0.21631945318897375
0.2471367650560819
0.027373881694228587
0.03212164508268577
0.04137195596856248
0.055124814351858724
0.07275755526410058
0.09427017870528806
0.1188978382145772
0.1466405337919679
0.1767804931323917
0.20931771623584858
-0.022373973960024923
-0.017121921880074723
-0.006949232027555381
0.00814409559753311
0.0273484175859074
0.050663733937567505
0.07715496259624152
0.10682210356192938
0.13884380349001293
0.17322006238049223
-0.07207289755971402
-0.06621869267914193
-0.05495886347830916
-0.038293409957215675
-0.01727706305471858
0.008090177229182129
0.036665891690286855
0.06845008032859552
0.1025093842618375
0.13884380349001282
-0.12167753414361657
-0.11503260243084956
-0.10239535780295748
-0.08376580025994038
-0.06057176182182834
-0.032813242488621386
-0.001884469938531256
0.03221455582844199
0.06845008032859547
0.1068221035619292
-0.1711878837117326
-0.1635636511351976
-0.14925871500150042
-0.128273075310641
-0.10253567871542191
-0.07204652521584308
-0.03849612229021282
-0.0018844699385312576
0.036665891690286806
0.0771549625962414
-0.22048186901246927
-0.21144560703740764
-0.19491385109279416
-0.17088660117862872
-0.14207052381102298
-0.1084656189899769
-0.07204652521584301
-0.03281324248862132
0.008090177229182153
0.05066373393756744
-0.2695594900458266
-0.25867847013747974
-0.23936076607683873
-0.21160637786390354
-0.17917629710863164
-0.14207052381102298
-0.10253567871542182
-0.060571761821828246
-0.017277063054718534
0.02734841758590734
-0.31798489065704716
-0.30395467197114134
-0.2806962385227766
-0.2482095903119528
-0.21160637786390357
-0.17088660117862875
-0.12827307531064092
-0.08376580025994027
-0.03829340995721561
0.008144095597533062
-0.3657580708461308
-0.34727421253839236
-0.31892026843060756
-0.2806962385227765
-0.23936076607683868
-0.1949138510927941
-0.1492587150015003
-0.10239535780295733
-0.05495886347830903
-0.006949232027555356
-0.41098349570550446
-0.38295048711651336
-0.34727421253839225
-0.3039546719711411
-0.2586784701374796
-0.21144560703740756
-0.16356365113519744
-0.11503260243084937
-0.06621869267914177
-0.017121921880074668
-0.4536611652351682
-0.4109834957055044
-0.36575807084613066
-0.31798489065704694
-0.2695594900458264
-0.22048186901246913
-0.1711878837117324
-0.12167753414361636
-0.07207289755971386
-0.022373973960024867
-0.4536611652351681
-0.4109834957055044
-0.36575807084613066
-0.31798489065704694
-0.2695594900458264
-0.22048186901246913