# vtk DataFile Version 4.1
Header:
ASCII

DATASET UNSTRUCTURED_GRID
POINTS 324 double
-0.8943375672974065 -0.8943375672974064 0.0
-0.6056624327025937 -0.8943375672974064 0.0
-0.8943375672974065 -0.6056624327025937 0.0
-0.6056624327025937 -0.6056624327025936 0.0
-0.39433756729740643 -0.8943375672974064 0.0
-0.10566243270259357 -0.8943375672974064 0.0
-0.39433756729740643 -0.6056624327025937 0.0
-0.10566243270259357 -0.6056624327025936 0.0
0.10566243270259357 -0.8943375672974064 0.0
0.39433756729740643 -0.8943375672974064 0.0
0.10566243270259357 -0.6056624327025937 0.0
0.39433756729740643 -0.6056624327025936 0.0
0.6056624327025937 -0.8943375672974064 0.0
0.8943375672974065 -0.8943375672974064 0.0
0.6056624327025937 -0.6056624327025937 0.0
0.8943375672974065 -0.6056624327025936 0.0
-0.8943375672974065 -0.39433756729740643 0.0
-0.6056624327025937 -0.39433756729740643 0.0
-0.8943375672974065 -0.10566243270259357 0.0
-0.6056624327025937 -0.10566243270259357 0.0
-0.14999999999999705 -0.4932357752179525 0.0
-0.09999999999999704 -0.4983089438044881 0.0
-0.34999999999999704 -0.4983089438044881 0.0
-0.17719701287800782 -0.48777859759314424 0.0
-0.1692992532195 -0.49060318866511643 0.0
-0.3692992532195 -0.4956763572516521 0.0
-0.45520973817100563 -0.266666666666665 0.0
-0.4263024345427511 -0.316666666666665 0.0
-0.4763024345427511 -0.416666666666665 0.0
-0.34296910120942103 -0.233333333333335 0.0
-0.3718764048376756 -0.18333333333333499 0.0
-0.14296910120942102 -0.08333333333333498 0.0
-0.4983089438044881 -0.09999999999999704 0.0
-0.4932357752179525 -0.14999999999999705 0.0
-0.4983089438044881 -0.34999999999999704 0.0
-0.019299253219502988 -0.41403408011383397 0.0
-0.07719701287801081 -0.40613632045532605 0.0
-0.019299253219502988 -0.16403408011383397 0.0
-0.1105303462113448 -0.3991054216647442 0.0
-0.15263258655283699 -0.3859104849515067 0.0
-0.05263258655283698 -0.15700318132325203 0.0
-0.23596591988616702 -0.46924381828483674 0.0
-0.19386367954467482 -0.4824387549980742 0.0
-0.385965919886167 -0.4903365146565821 0.0
-0.18333333333333499 -0.3718764048376756 0.0
-0.233333333333335 -0.34296910120942103 0.0
-0.08333333333333498 -0.14296910120942105 0.0
-0.266666666666669 -0.316666666666669 0.0
-0.316666666666669 -0.266666666666669 0.0
-0.11666666666666897 -0.11666666666666897 0.0
-0.316666666666665 -0.4263024345427511 0.0
-0.26666666666666505 -0.45520973817100574 0.0
-0.416666666666665 -0.47630243454275106 0.0
-0.39999999999999897 -0.349999999999999 0.0
-0.349999999999999 -0.39999999999999897 0.0
-0.44999999999999896 -0.44999999999999896 0.0
-0.48243875499807426 -0.19386367954467482 0.0
-0.46924381828483674 -0.23596591988616702 0.0
-0.4903365146565821 -0.385965919886167 0.0
-0.49060318866511643 -0.1692992532195 0.0
-0.4877785975931443 -0.17719701287800785 0.0
-0.4956763572516521 -0.3692992532195 0.0
-0.3859104849515067 -0.15263258655283699 0.0
-0.3991054216647442 -0.1105303462113448 0.0
-0.15700318132325206 -0.05263258655283698 0.0
-0.40613632045532605 -0.07719701287801081 0.0
-0.41403408011383397 -0.019299253219502988 0.0
-0.16403408011383397 -0.019299253219502988 0.0
-0.49060318866511654 -0.08596591988616883 0.0
-0.49567635725165227 -0.03596591988616882 0.0
-0.48777859759314446 -0.09386367954467668 0.0
-0.08596591988616997 -0.49060318866511643 0.0
-0.09386367954467781 -0.48777859759314424 0.0
-0.035965919886169984 -0.4956763572516521 0.0
0.36886733753519674 -0.19256490299244616 0.0
0.14944366029086165 -0.07314122574811113 0.0
0.37835096391911627 -0.17314122574811114 0.0
0.33980789241477677 -0.23980789241477773 0.0
0.13980789241477679 -0.08980789241477774 0.0
0.35923156965911185 -0.20923156965911274 0.0
0.36903559372885 -0.385702260395516 0.0
0.44225889843221317 -0.45892556509887916 0.0
0.34225889843221313 -0.4089255650988791 0.0
0.2589255650988776 -0.32559223176554464 0.0
0.1089255650988776 -0.12559223176554463 0.0
0.2857022603955145 -0.3023689270621815 0.0
0.4089255650988796 -0.3422588984322126 0.0
0.4589255650988796 -0.44225889843221255 0.0
0.38570226039551647 -0.3690355937288495 0.0
0.302368927062181 -0.285702260395515 0.0
0.12559223176554415 -0.10892556509887813 0.0
0.3255922317655442 -0.25892556509887815 0.0
0.32314122574811277 -0.42314122574811175 0.0
0.42314122574811275 -0.47314122574811174 0.0
0.29256490299244775 -0.4425649029924468 0.0
0.27589823632578114 -0.45220067086853155 0.0
0.40647455908144614 -0.48277699362419657 0.0
0.2564745590814461 -0.4616842972524512 0.0
0.20923156965911216 -0.3592315696591121 0.0
0.08980789241477716 -0.13980789241477715 0.0
0.23980789241477718 -0.33980789241477716 0.0
0.17314122574811075 -0.3783509639191164 0.0
0.07314122574811077 -0.1494436602908618 0.0
0.19256490299244577 -0.36886733753519685 0.0
0.24491354007303773 -0.46678994491070935 0.0
0.3949135400730377 -0.48788264128245473 0.0
0.22965416029214733 -0.4726232615015644 0.0
0.21298749362548103 -0.47796310409663423 0.0
0.3782468734063714 -0.49322248387752465 0.0
0.1782468734063714 -0.48814931529098904 0.0
0.14632082695881204 -0.3892899281682295 0.0
0.06158020673970244 -0.15454930794911992 0.0
0.16158020673970247 -0.38345661157737454 0.0
0.09491354007303573 -0.4048159819576542 0.0
0.044913540073035746 -0.15988915054418984 0.0
0.12965416029214533 -0.3946297707632994 0.0
0.16516503252265602 -0.4917341410739405 0.0
0.365165032522656 -0.4968073096604761 0.0
0.1606601300906199 -0.49230240722844 0.0
0.14399346342395383 -0.4939934634239519 0.0
0.3484983658559899 -0.49849836585598795 0.0
0.09849836585598992 -0.49849836585598795 0.0
0.07732679675728488 -0.40896907389510506 0.0
0.03183169918932094 -0.16347397632714117 0.0
0.08183169918932094 -0.4084008077406055 0.0
0.015165032522654942 -0.16516503252265297 0.0
0.06066013009061885 -0.41066013009061686 0.0
0.015165032522654942 -0.41516503252265297 0.0
0.49849836585598795 -0.3484983658559899 0.0
0.4939934634239519 -0.14399346342395383 0.0
0.49849836585598795 -0.09849836585598992 0.0
0.49230240722844 -0.16066013009061983 0.0
0.49680730966047615 -0.3651650325226559 0.0
0.4917341410739405 -0.1651650325226559 0.0
0.41066013009061686 -0.06066013009061885 0.0
0.16516503252265297 -0.015165032522654942 0.0
0.41516503252265297 -0.015165032522654942 0.0
0.4084008077406055 -0.08183169918932104 0.0
0.16347397632714114 -0.03183169918932102 0.0
0.40896907389510506 -0.07732679675728493 0.0
0.48814931529098915 -0.17824687340637071 0.0
0.4932224838775249 -0.37824687340637075 0.0
0.47796310409663445 -0.21298749362548033 0.0
0.4726232615015646 -0.22965416029214705 0.0
0.48788264128245495 -0.3949135400730375 0.0
0.46678994491070946 -0.24491354007303742 0.0
0.3946297707632993 -0.12965416029214605 0.0
0.15988915054418967 -0.04491354007303644 0.0
0.404815981957654 -0.09491354007303643 0.0
0.38345661157737443 -0.16158020673970275 0.0
0.1545493079491198 -0.06158020673970275 0.0
0.38928992816822955 -0.14632082695881235 0.0
0.4616842972524514 -0.25647455908144573 0.0
0.48277699362419674 -0.40647455908144564 0.0
0.4522006708685319 -0.27589823632578075 0.0
0.4425649029924472 -0.2925649029924472 0.0
0.47314122574811207 -0.423141225748112 0.0
0.4231412257481122 -0.3231412257481121 0.0
0.6056624327025937 -0.39433756729740643 0.0
0.8943375672974065 -0.39433756729740643 0.0
0.6056624327025937 -0.10566243270259357 0.0
0.8943375672974065 -0.10566243270259357 0.0
-0.8943375672974065 0.10566243270259357 0.0
-0.6056624327025937 0.10566243270259357 0.0
-0.8943375672974065 0.39433756729740643 0.0
-0.6056624327025937 0.39433756729740643 0.0
-0.16516503252265602 0.4917341410739404 0.0
-0.365165032522656 0.4968073096604761 0.0
-0.1606601300906199 0.49230240722844 0.0
-0.212987493625481 0.47796310409663423 0.0
-0.3782468734063714 0.49322248387752465 0.0
-0.1782468734063714 0.4881493152909889 0.0
-0.302368927062181 0.285702260395515 0.0
-0.12559223176554415 0.10892556509887813 0.0
-0.3255922317655442 0.25892556509887815 0.0
-0.40892556509887956 0.3422588984322126 0.0
-0.4589255650988796 0.44225889843221255 0.0
-0.38570226039551647 0.3690355937288495 0.0
-0.41066013009061686 0.06066013009061885 0.0
-0.16516503252265297 0.015165032522654942 0.0
-0.41516503252265297 0.015165032522654942 0.0
-0.49849836585598795 0.3484983658559899 0.0
-0.4939934634239519 0.14399346342395383 0.0
-0.49849836585598795 0.09849836585598992 0.0
-0.015165032522654942 0.16516503252265297 0.0
-0.06066013009061885 0.41066013009061686 0.0
-0.015165032522654942 0.41516503252265297 0.0
-0.14399346342395383 0.4939934634239519 0.0
-0.3484983658559899 0.49849836585598795 0.0
-0.09849836585598992 0.49849836585598795 0.0
-0.2589255650988776 0.32559223176554464 0.0
-0.1089255650988776 0.12559223176554463 0.0
-0.2857022603955145 0.3023689270621815 0.0
-0.36903559372885 0.385702260395516 0.0
-0.44225889843221317 0.45892556509887916 0.0
-0.34225889843221313 0.4089255650988791 0.0
-0.3398078924147767 0.23980789241477773 0.0
-0.13980789241477676 0.08980789241477777 0.0
-0.35923156965911174 0.20923156965911274 0.0
-0.3688673375351966 0.19256490299244616 0.0
-0.14944366029086162 0.07314122574811116 0.0
-0.37835096391911616 0.17314122574811114 0.0
-0.44256490299244716 0.2925649029924472 0.0
-0.4731412257481121 0.42314122574811214 0.0
-0.4231412257481121 0.3231412257481121 0.0
-0.4616842972524514 0.2564745590814458 0.0
-0.4827769936241968 0.40647455908144575 0.0
-0.4522006708685318 0.27589823632578075 0.0
-0.38345661157737443 0.16158020673970275 0.0
-0.15454930794911978 0.06158020673970274 0.0
-0.3892899281682294 0.14632082695881232 0.0
-0.47262326150156453 0.22965416029214705 0.0
-0.4878826412824549 0.3949135400730374 0.0
-0.46678994491070946 0.2449135400730374 0.0
-0.14632082695881204 0.3892899281682296 0.0
-0.06158020673970244 0.15454930794911995 0.0
-0.16158020673970244 0.38345661157737454 0.0
-0.2449135400730377 0.46678994491070935 0.0
-0.3949135400730377 0.48788264128245484 0.0
-0.2296541602921473 0.4726232615015644 0.0
-0.17314122574811075 0.3783509639191164 0.0
-0.07314122574811074 0.14944366029086184 0.0
-0.19256490299244572 0.36886733753519685 0.0
-0.2092315696591121 0.3592315696591122 0.0
-0.08980789241477713 0.13980789241477717 0.0
-0.2398078924147771 0.33980789241477716 0.0
-0.27589823632578114 0.45220067086853166 0.0
-0.40647455908144614 0.4827769936241967 0.0
-0.2564745590814461 0.4616842972524512 0.0
-0.3231412257481127 0.42314122574811175 0.0
-0.42314122574811275 0.4731412257481118 0.0
-0.29256490299244775 0.4425649029924468 0.0
-0.39462977076329914 0.129654160292146 0.0
-0.15988915054418965 0.04491354007303644 0.0
-0.404815981957654 0.09491354007303643 0.0
-0.4084008077406055 0.08183169918932104 0.0
-0.16347397632714117 0.03183169918932102 0.0
-0.40896907389510506 0.07732679675728493 0.0
-0.48814931529098915 0.17824687340637074 0.0
-0.4932224838775249 0.37824687340637075 0.0
-0.4779631040966345 0.21298749362548036 0.0
-0.49230240722844 0.16066013009061986 0.0
-0.49680730966047615 0.3651650325226559 0.0
-0.49173414107394053 0.16516503252265594 0.0
-0.07732679675728485 0.40896907389510506 0.0
-0.03183169918932094 0.16347397632714114 0.0
-0.08183169918932093 0.4084008077406055 0.0
-0.09491354007303573 0.4048159819576542 0.0
-0.044913540073035746 0.15988915054418984 0.0
-0.12965416029214535 0.3946297707632995 0.0
0.08596591988617003 0.49060318866511643 0.0
0.09386367954467789 0.48777859759314424 0.0
0.03596591988617001 0.49567635725165204 0.0
0.019299253219503015 0.414034080113834 0.0
0.0771970128780109 0.4061363204553261 0.0
0.019299253219503015 0.16403408011383397 0.0
0.316666666666665 0.4263024345427511 0.0
0.26666666666666505 0.4552097381710055 0.0
0.41666666666666496 0.476302434542751 0.0
0.18333333333333499 0.3718764048376755 0.0
0.233333333333335 0.34296910120942103 0.0
0.08333333333333498 0.142969101209421 0.0
0.4061363204553261 0.0771970128780109 0.0
0.41403408011383397 0.019299253219502988 0.0
0.16403408011383397 0.019299253219503015 0.0
0.3859104849515065 0.152632586552837 0.0
0.39910542166474405 0.11053034621134489 0.0
0.157003181323252 0.05263258655283701 0.0
0.4824387549980741 0.1938636795446749 0.0
0.4692438182848365 0.23596591988616702 0.0
0.490336514656582 0.385965919886167 0.0
0.34296910120942103 0.233333333333335 0.0
0.3718764048376755 0.18333333333333499 0.0
0.142969101209421 0.08333333333333498 0.0
0.266666666666669 0.316666666666669 0.0
0.316666666666669 0.266666666666669 0.0
0.11666666666666897 0.11666666666666897 0.0
0.4552097381710055 0.266666666666665 0.0
0.4263024345427511 0.316666666666665 0.0
0.476302434542751 0.41666666666666496 0.0
0.39999999999999897 0.349999999999999 0.0
0.349999999999999 0.39999999999999897 0.0
0.44999999999999896 0.44999999999999896 0.0
0.14999999999999705 0.4932357752179525 0.0
0.09999999999999704 0.4983089438044881 0.0
0.34999999999999704 0.4983089438044881 0.0
0.4983089438044881 0.09999999999999704 0.0
0.4932357752179525 0.14999999999999705 0.0
0.4983089438044881 0.34999999999999704 0.0
0.4906031886651165 0.16929925321950004 0.0
0.48777859759314424 0.17719701287800796 0.0
0.4956763572516521 0.3692992532195 0.0
0.4906031886651166 0.08596591988616886 0.0
0.49567635725165227 0.03596591988616887 0.0
0.48777859759314435 0.09386367954467673 0.0
0.235965919886167 0.4692438182848365 0.0
0.19386367954467493 0.48243875499807415 0.0
0.385965919886167 0.490336514656582 0.0
0.17719701287800793 0.48777859759314424 0.0
0.16929925321950004 0.4906031886651165 0.0
0.3692992532195001 0.49567635725165216 0.0
0.11053034621134489 0.39910542166474405 0.0
0.152632586552837 0.3859104849515065 0.0
0.05263258655283701 0.157003181323252 0.0
0.6056624327025937 0.10566243270259357 0.0
0.8943375672974065 0.10566243270259357 0.0
0.6056624327025937 0.39433756729740643 0.0
0.8943375672974065 0.39433756729740643 0.0
-0.8943375672974065 0.6056624327025936 0.0
-0.6056624327025937 0.6056624327025936 0.0
-0.8943375672974065 0.8943375672974065 0.0
-0.6056624327025937 0.8943375672974065 0.0
-0.39433756729740643 0.6056624327025936 0.0
-0.10566243270259357 0.6056624327025936 0.0
-0.39433756729740643 0.8943375672974065 0.0
-0.10566243270259357 0.8943375672974065 0.0
0.10566243270259357 0.6056624327025936 0.0
0.39433756729740643 0.6056624327025936 0.0
0.10566243270259357 0.8943375672974065 0.0
0.39433756729740643 0.8943375672974065 0.0
0.6056624327025937 0.6056624327025936 0.0
0.8943375672974065 0.6056624327025936 0.0
0.6056624327025937 0.8943375672974065 0.0
0.8943375672974065 0.8943375672974065 0.0


POINT_DATA 324
SCALARS element_ids double 1
LOOKUP_TABLE default
0
0
0
0
1
1
1
1
2
2
2
2
3
3
3
3
4
4
4
4
5
5
5
5
5
5
5
5
5
5
5
5
5
5
5
5
5
5
5
5
5
5
5
5
5
5
5
5
5
5
5
5
5
5
5
5
5
5
5
5
5
5
5
5
5
5
5
5
5
5
5
5
5
5
6
6
6
6
6
6
6
6
6
6
6
6
6
6
6
6
6
6
6
6
6
6
6
6
6
6
6
6
6
6
6
6
6
6
6
6
6
6
6
6
6
6
6
6
6
6
6
6
6
6
6
6
6
6
6
6
6
6
6
6
6
6
6
6
6
6
6
6
6
6
6
6
6
6
6
6
6
6
6
6
6
6
6
6
7
7
7
7
8
8
8
8
9
9
9
9
9
9
9
9
9
9
9
9
9
9
9
9
9
9
9
9
9
9
9
9
9
9
9
9
9
9
9
9
9
9
9
9
9
9
9
9
9
9
9
9
9
9
9
9
9
9
9
9
9
9
9
9
9
9
9
9
9
9
9
9
9
9
9
9
9
9
9
9
9
9
9
9
9
9
9
9
9
9
9
9
10
10
10
10
10
10
10
10
10
10
10
10
10
10
10
10
10
10
10
10
10
10
10
10
10
10
10
10
10
10
10
10
10
10
10
10
10
10
10
10
10
10
10
10
10
10
10
10
10
10
10
10
10
10
11
11
11
11
12
12
12
12
13
13
13
13
14
14
14
14
15
15
15
15

