# vtk DataFile Version 4.1
Header:
ASCII

DATASET UNSTRUCTURED_GRID
POINTS 92 double
-0.2211324865405187 -0.44559694315957366 0.0
-0.2788675134594813 -0.41221766409693555 0.0
-0.133590019863861 -0.4786276442330746 0.0
-0.18220549945315467 -0.46339144370641894 0.0
-0.10333798599367336 -0.48865985017071023 0.0
-0.11245753332334231 -0.4853982933392028 0.0
-0.02113248654051872 -0.49785582666254513 0.0
-0.07886751345948127 -0.49199783616438364 0.0
-0.32113248654051874 -0.37886751345948133 0.0
-0.37886751345948133 -0.32113248654051874 0.0
-0.41221766409693555 -0.2788675134594813 0.0
-0.44559694315957366 -0.2211324865405187 0.0
-0.46339144370641894 -0.18220549945315467 0.0
-0.4786276442330746 -0.133590019863861 0.0
-0.4853982933392028 -0.11245753332334231 0.0
-0.48865985017071023 -0.10333798599367336 0.0
-0.49199783616438364 -0.07886751345948127 0.0
-0.49785582666254513 -0.02113248654051872 0.0
0.07176170439563617 -0.4928941909361549 0.0
0.01922849074029165 -0.49809600419977296 0.0
0.09809600419977292 -0.4900938403641566 0.0
0.09289419093615489 -0.49075001759869996 0.0
0.15479812665442708 -0.4737864398574909 0.0
0.11468311378379212 -0.48554846340765706 0.0
0.1935506272432734 -0.4602800569433657 0.0
0.1759306131949458 -0.4670157907513627 0.0
0.23063794253000425 -0.4428556066269398 0.0
0.20820941195866577 -0.4538063551182393 0.0
0.28707692541814706 -0.4082094119586658 0.0
0.251770429070523 -0.4306379425300042 0.0
0.3422362275341587 -0.3633687140746774 0.0
0.311317163059115 -0.39018467651859634 0.0
0.39018467651859634 -0.311317163059115 0.0
0.3633687140746774 -0.3422362275341587 0.0
0.43063794253000426 -0.25177042907052294 0.0
0.4082094119586658 -0.287076925418147 0.0
0.4538063551182394 -0.2082094119586658 0.0
0.4428556066269398 -0.23063794253000422 0.0
0.4670157907513627 -0.1759306131949458 0.0
0.46028005694336577 -0.19355062724327343 0.0
0.48554846340765706 -0.11468311378379212 0.0
0.4737864398574909 -0.1547981266544271 0.0
0.49075001759869985 -0.09289419093615489 0.0
0.4900938403641566 -0.09809600419977293 0.0
0.49809600419977296 -0.01922849074029165 0.0
0.49289419093615483 -0.07176170439563616 0.0
-0.49809600419977296 0.01922849074029165 0.0
-0.4928941909361549 0.07176170439563617 0.0
-0.49075001759869996 0.09289419093615489 0.0
-0.4900938403641566 0.09809600419977292 0.0
-0.48554846340765706 0.11468311378379212 0.0
-0.4737864398574909 0.15479812665442708 0.0
-0.4670157907513627 0.1759306131949458 0.0
-0.4602800569433657 0.1935506272432734 0.0
-0.4538063551182393 0.20820941195866577 0.0
-0.4428556066269398 0.23063794253000425 0.0
-0.4306379425300042 0.251770429070523 0.0
-0.4082094119586658 0.28707692541814706 0.0
-0.39018467651859634 0.311317163059115 0.0
-0.3633687140746774 0.3422362275341587 0.0
-0.3422362275341587 0.3633687140746774 0.0
-0.311317163059115 0.39018467651859634 0.0
-0.287076925418147 0.4082094119586658 0.0
-0.25177042907052294 0.43063794253000426 0.0
-0.23063794253000422 0.4428556066269398 0.0
-0.2082094119586658 0.4538063551182394 0.0
-0.19355062724327343 0.46028005694336577 0.0
-0.1759306131949458 0.4670157907513627 0.0
-0.1547981266544271 0.4737864398574909 0.0
-0.11468311378379212 0.48554846340765706 0.0
-0.09809600419977293 0.4900938403641566 0.0
-0.09289419093615489 0.49075001759869985 0.0
-0.07176170439563616 0.49289419093615483 0.0
-0.01922849074029165 0.49809600419977296 0.0
0.49199783616438364 0.07886751345948129 0.0
0.49785582666254513 0.02113248654051872 0.0
0.4853982933392027 0.11245753332334238 0.0
0.48865985017071023 0.10333798599367337 0.0
0.4633914437064188 0.18220549945315467 0.0
0.47862764423307447 0.1335900198638611 0.0
0.41221766409693555 0.2788675134594813 0.0
0.4455969431595735 0.2211324865405187 0.0
0.32113248654051874 0.37886751345948133 0.0
0.37886751345948133 0.32113248654051874 0.0
0.02113248654051872 0.49785582666254513 0.0
0.07886751345948129 0.49199783616438364 0.0
0.10333798599367337 0.48865985017071023 0.0
0.11245753332334238 0.4853982933392027 0.0
0.1335900198638611 0.47862764423307447 0.0
0.18220549945315467 0.4633914437064188 0.0
0.2211324865405187 0.4455969431595735 0.0
0.2788675134594813 0.41221766409693555 0.0


POINT_DATA 92
VECTORS normal_vectors double
-0.5005166223107251 -0.8657269262248131 0.0
-0.5005166223107251 -0.8657269262248131 0.0
-0.2990592499567944 -0.9542345440274522 0.0
-0.2990592499567944 -0.9542345440274522 0.0
-0.33675535541806534 -0.9415921784919694 0.0
-0.33675535541806534 -0.9415921784919694 0.0
-0.10094509661402955 -0.9948919978920246 0.0
-0.10094509661402955 -0.9948919978920246 0.0
-0.7071067811865475 -0.7071067811865475 0.0
-0.7071067811865475 -0.7071067811865475 0.0
-0.8657269262248131 -0.5005166223107251 0.0
-0.8657269262248131 -0.5005166223107251 0.0
-0.9542345440274522 -0.2990592499567944 0.0
-0.9542345440274522 -0.2990592499567944 0.0
-0.9415921784919694 -0.33675535541806534 0.0
-0.9415921784919694 -0.33675535541806534 0.0
-0.9948919978920246 -0.10094509661402955 0.0
-0.9948919978920246 -0.10094509661402955 0.0
0.09853761796664287 -0.9951333266680702 0.0
0.09853761796664287 -0.9951333266680702 0.0
0.12515214376032094 -0.992137561486408 0.0
0.12515214376032094 -0.992137561486408 0.0
0.28136240301990895 -0.9596015830368675 0.0
0.28136240301990895 -0.9596015830368675 0.0
0.3570759342614901 -0.9340753594712174 0.0
0.3570759342614901 -0.9340753594712174 0.0
0.4387473071992455 -0.8986104831490733 0.0
0.4387473071992455 -0.8986104831490733 0.0
0.5362076019734002 -0.8440861375392535 0.0
0.5362076019734002 -0.8440861375392535 0.0
0.6552017413601294 -0.7554539549957058 0.0
0.6552017413601294 -0.7554539549957058 0.0
0.7554539549957058 -0.6552017413601294 0.0
0.7554539549957058 -0.6552017413601294 0.0
0.8440861375392534 -0.5362076019734004 0.0
0.8440861375392534 -0.5362076019734004 0.0
0.8986104831490731 -0.438747307199246 0.0
0.8986104831490731 -0.438747307199246 0.0
0.9340753594712172 -0.3570759342614903 0.0
0.9340753594712172 -0.3570759342614903 0.0
0.9596015830368683 -0.28136240301990667 0.0
0.9596015830368683 -0.28136240301990667 0.0
0.9921375614864064 -0.12515214376033335 0.0
0.9921375614864064 -0.12515214376033335 0.0
0.9951333266680702 -0.09853761796664287 0.0
0.9951333266680702 -0.09853761796664287 0.0
-0.9951333266680702 0.09853761796664287 0.0
-0.9951333266680702 0.09853761796664287 0.0
-0.992137561486408 0.12515214376032094 0.0
-0.992137561486408 0.12515214376032094 0.0
-0.9596015830368675 0.28136240301990895 0.0
-0.9596015830368675 0.28136240301990895 0.0
-0.9340753594712174 0.3570759342614901 0.0
-0.9340753594712174 0.3570759342614901 0.0
-0.8986104831490733 0.4387473071992455 0.0
-0.8986104831490733 0.4387473071992455 0.0
-0.8440861375392535 0.5362076019734002 0.0
-0.8440861375392535 0.5362076019734002 0.0
-0.7554539549957058 0.6552017413601294 0.0
-0.7554539549957058 0.6552017413601294 0.0
-0.6552017413601294 0.7554539549957058 0.0
-0.6552017413601294 0.7554539549957058 0.0
-0.5362076019734004 0.8440861375392534 0.0
-0.5362076019734004 0.8440861375392534 0.0
-0.438747307199246 0.8986104831490731 0.0
-0.438747307199246 0.8986104831490731 0.0
-0.3570759342614903 0.9340753594712172 0.0
-0.3570759342614903 0.9340753594712172 0.0
-0.28136240301990667 0.9596015830368683 0.0
-0.28136240301990667 0.9596015830368683 0.0
-0.12515214376033335 0.9921375614864064 0.0
-0.12515214376033335 0.9921375614864064 0.0
-0.09853761796664287 0.9951333266680702 0.0
-0.09853761796664287 0.9951333266680702 0.0
0.9948919978920245 0.10094509661403006 0.0
0.9948919978920245 0.10094509661403006 0.0
0.9415921784919686 0.3367553554180666 0.0
0.9415921784919686 0.3367553554180666 0.0
0.9542345440274517 0.2990592499567959 0.0
0.9542345440274517 0.2990592499567959 0.0
0.865726926224814 0.5005166223107237 0.0
0.865726926224814 0.5005166223107237 0.0
0.7071067811865475 0.7071067811865475 0.0
0.7071067811865475 0.7071067811865475 0.0
0.10094509661403006 0.9948919978920245 0.0
0.10094509661403006 0.9948919978920245 0.0
0.3367553554180666 0.9415921784919686 0.0
0.3367553554180666 0.9415921784919686 0.0
0.2990592499567959 0.9542345440274517 0.0
0.2990592499567959 0.9542345440274517 0.0
0.5005166223107237 0.865726926224814 0.0
0.5005166223107237 0.865726926224814 0.0

