# vtk DataFile Version 4.1
Header:
ASCII

DATASET UNSTRUCTURED_GRID
POINTS 50 double
-0.3 -0.4 0
-0.2 -0.45781460725650924 0
-0.11579551931701565 -0.4842044806829844 0
-0.09999999999999998 -0.48985366282692877 0
0 -0.5 0
-0.4 -0.3 0
-0.45781460725650924 -0.2 0
-0.4842044806829844 -0.11579551931701565 0
-0.48985366282692877 -0.09999999999999998 0
-0.5 0 0
0 -0.5 0
0.09099019513592782 -0.4909901951359278 0
0.1 -0.48985366282692877 0
0.1694812404382192 -0.4694812404382192 0
0.2 -0.45781460725650913 0
0.23884735448867006 -0.43884735448867 0
0.3 -0.4 0
0.35355339059327373 -0.35355339059327373 0
0.4 -0.3 0
0.43884735448867007 -0.23884735448867 0
0.4578146072565092 -0.2 0
0.46948124043821926 -0.16948124043821922 0
0.48985366282692866 -0.09999999999999998 0
0.4909901951359278 -0.09099019513592782 0
0.5 0 0
-0.5 0 0
-0.4909901951359278 0.09099019513592782 0
-0.48985366282692877 0.1 0
-0.4694812404382192 0.1694812404382192 0
-0.45781460725650913 0.2 0
-0.43884735448867 0.23884735448867006 0
-0.4 0.3 0
-0.35355339059327373 0.35355339059327373 0
-0.3 0.4 0
-0.23884735448867 0.43884735448867007 0
-0.2 0.4578146072565092 0
-0.16948124043821922 0.46948124043821926 0
-0.09999999999999998 0.48985366282692866 0
-0.09099019513592782 0.4909901951359278 0
0 0.5 0
0.5 0 0
0.4898536628269287 0.1 0
0.4842044806829843 0.11579551931701576 0
0.457814607256509 0.2 0
0.4 0.3 0
0.3 0.4 0
0 0.5 0
0.1 0.4898536628269287 0
0.11579551931701576 0.4842044806829843 0
0.2 0.457814607256509 0

CELLS 46 138
2 1 0
2 2 1
2 3 2
2 4 3
2 0 5
2 5 6
2 6 7
2 7 8
2 8 9
2 11 10
2 12 11
2 13 12
2 14 13
2 15 14
2 16 15
2 17 16
2 18 17
2 19 18
2 20 19
2 21 20
2 22 21
2 23 22
2 24 23
2 25 26
2 26 27
2 27 28
2 28 29
2 29 30
2 30 31
2 31 32
2 32 33
2 33 34
2 34 35
2 35 36
2 36 37
2 37 38
2 38 39
2 41 40
2 42 41
2 43 42
2 44 43
2 45 44
2 46 47
2 47 48
2 48 49
2 49 45

CELL_TYPES 46
3
3
3
3
3
3
3
3
3
3
3
3
3
3
3
3
3
3
3
3
3
3
3
3
3
3
3
3
3
3
3
3
3
3
3
3
3
3
3
3
3
3
3
3
3
3


POINT_DATA 50
SCALARS elementID double 1
LOOKUP_TABLE default
5
5
5
5
5
5
5
5
5
5
6
6
6
6
6
6
6
6
6
6
6
6
6
6
6
9
9
9
9
9
9
9
9
9
9
9
9
9
9
9
10
10
10
10
10
10
10
10
10
10

SCALARS lsm_geometryID double 1
LOOKUP_TABLE default
0
0
0
0
0
0
0
0
0
0
0
0
0
0
0
0
0
0
0
0
0
0
0
0
0
0
0
0
0
0
0
0
0
0
0
0
0
0
0
0
0
0
0
0
0
0
0
0
0
0

