# vtk DataFile Version 4.1
Header:
ASCII

DATASET UNSTRUCTURED_GRID
POINTS 441 double
-1 -1 0.0
-0.9 -1 0.0
-0.8 -1 0.0
-0.7 -1 0.0
-0.6 -1 0.0
-0.5 -1 0.0
-0.3999999999999999 -1 0.0
-0.29999999999999993 -1 0.0
-0.19999999999999996 -1 0.0
-0.09999999999999998 -1 0.0
0 -1 0.0
0.10000000000000009 -1 0.0
0.20000000000000018 -1 0.0
0.30000000000000004 -1 0.0
0.40000000000000013 -1 0.0
0.5 -1 0.0
0.6000000000000001 -1 0.0
0.7000000000000002 -1 0.0
0.8 -1 0.0
0.9000000000000001 -1 0.0
1 -1 0.0
-1 -0.9 0.0
-0.9 -0.9 0.0
-0.8 -0.9 0.0
-0.7 -0.9 0.0
-0.6 -0.9 0.0
-0.5 -0.9 0.0
-0.3999999999999999 -0.9 0.0
-0.29999999999999993 -0.9 0.0
-0.19999999999999996 -0.9 0.0
-0.09999999999999998 -0.9 0.0
0 -0.9 0.0
0.10000000000000009 -0.9 0.0
0.20000000000000018 -0.9 0.0
0.30000000000000004 -0.9 0.0
0.40000000000000013 -0.9 0.0
0.5 -0.9 0.0
0.6000000000000001 -0.9 0.0
0.7000000000000002 -0.9 0.0
0.8 -0.9 0.0
0.9000000000000001 -0.9 0.0
1 -0.9 0.0
-1 -0.8 0.0
-0.9 -0.8 0.0
-0.8 -0.8 0.0
-0.7 -0.8 0.0
-0.6 -0.8 0.0
-0.5 -0.8 0.0
-0.3999999999999999 -0.8 0.0
-0.29999999999999993 -0.8 0.0
-0.19999999999999996 -0.8 0.0
-0.09999999999999998 -0.8 0.0
0 -0.8 0.0
0.10000000000000009 -0.8 0.0
0.20000000000000018 -0.8 0.0
0.30000000000000004 -0.8 0.0
0.40000000000000013 -0.8 0.0
0.5 -0.8 0.0
0.6000000000000001 -0.8 0.0
0.7000000000000002 -0.8 0.0
0.8 -0.8 0.0
0.9000000000000001 -0.8 0.0
1 -0.8 0.0
-1 -0.7 0.0
-0.9 -0.7 0.0
-0.8 -0.7 0.0
-0.7 -0.7 0.0
-0.6 -0.7 0.0
-0.5 -0.7 0.0
-0.3999999999999999 -0.7 0.0
-0.29999999999999993 -0.7 0.0
-0.19999999999999996 -0.7 0.0
-0.09999999999999998 -0.7 0.0
0 -0.7 0.0
0.10000000000000009 -0.7 0.0
0.20000000000000018 -0.7 0.0
0.30000000000000004 -0.7 0.0
0.40000000000000013 -0.7 0.0
0.5 -0.7 0.0
0.6000000000000001 -0.7 0.0
0.7000000000000002 -0.7 0.0
0.8 -0.7 0.0
0.9000000000000001 -0.7 0.0
1 -0.7 0.0
-1 -0.6 0.0
-0.9 -0.6 0.0
-0.8 -0.6 0.0
-0.7 -0.6 0.0
-0.6 -0.6 0.0
-0.5 -0.6 0.0
-0.3999999999999999 -0.6 0.0
-0.29999999999999993 -0.6 0.0
-0.19999999999999996 -0.6 0.0
-0.09999999999999998 -0.6 0.0
0 -0.6 0.0
0.10000000000000009 -0.6 0.0
0.20000000000000018 -0.6 0.0
0.30000000000000004 -0.6 0.0
0.40000000000000013 -0.6 0.0
0.5 -0.6 0.0
0.6000000000000001 -0.6 0.0
0.7000000000000002 -0.6 0.0
0.8 -0.6 0.0
0.9000000000000001 -0.6 0.0
1 -0.6 0.0
-1 -0.5 0.0
-0.9 -0.5 0.0
-0.8 -0.5 0.0
-0.7 -0.5 0.0
-0.6 -0.5 0.0
-0.5 -0.5 0.0
-0.3999999999999999 -0.5 0.0
-0.29999999999999993 -0.5 0.0
-0.19999999999999996 -0.5 0.0
-0.09999999999999998 -0.5 0.0
0 -0.5 0.0
0.10000000000000009 -0.5 0.0
0.20000000000000018 -0.5 0.0
0.30000000000000004 -0.5 0.0
0.40000000000000013 -0.5 0.0
0.5 -0.5 0.0
0.6000000000000001 -0.5 0.0
0.7000000000000002 -0.5 0.0
0.8 -0.5 0.0
0.9000000000000001 -0.5 0.0
1 -0.5 0.0
-1 -0.3999999999999999 0.0
-0.9 -0.3999999999999999 0.0
-0.8 -0.3999999999999999 0.0
-0.7 -0.3999999999999999 0.0
-0.6 -0.3999999999999999 0.0
-0.5 -0.3999999999999999 0.0
-0.3999999999999999 -0.3999999999999999 0.0
-0.29999999999999993 -0.3999999999999999 0.0
-0.19999999999999996 -0.3999999999999999 0.0
-0.09999999999999998 -0.3999999999999999 0.0
0 -0.3999999999999999 0.0
0.10000000000000009 -0.3999999999999999 0.0
0.20000000000000018 -0.3999999999999999 0.0
0.30000000000000004 -0.3999999999999999 0.0
0.40000000000000013 -0.3999999999999999 0.0
0.5 -0.3999999999999999 0.0
0.6000000000000001 -0.3999999999999999 0.0
0.7000000000000002 -0.3999999999999999 0.0
0.8 -0.3999999999999999 0.0
0.9000000000000001 -0.3999999999999999 0.0
1 -0.3999999999999999 0.0
-1 -0.29999999999999993 0.0
-0.9 -0.29999999999999993 0.0
-0.8 -0.29999999999999993 0.0
-0.7 -0.29999999999999993 0.0
-0.6 -0.29999999999999993 0.0
-0.5 -0.29999999999999993 0.0
-0.3999999999999999 -0.29999999999999993 0.0
-0.29999999999999993 -0.29999999999999993 0.0
-0.19999999999999996 -0.29999999999999993 0.0
-0.09999999999999998 -0.29999999999999993 0.0
0 -0.29999999999999993 0.0
0.10000000000000009 -0.29999999999999993 0.0
0.20000000000000018 -0.29999999999999993 0.0
0.30000000000000004 -0.29999999999999993 0.0
0.40000000000000013 -0.29999999999999993 0.0
0.5 -0.29999999999999993 0.0
0.6000000000000001 -0.29999999999999993 0.0
0.7000000000000002 -0.29999999999999993 0.0
0.8 -0.29999999999999993 0.0
0.9000000000000001 -0.29999999999999993 0.0
1 -0.29999999999999993 0.0
-1 -0.19999999999999996 0.0
-0.9 -0.19999999999999996 0.0
-0.8 -0.19999999999999996 0.0
-0.7 -0.19999999999999996 0.0
-0.6 -0.19999999999999996 0.0
-0.5 -0.19999999999999996 0.0
-0.3999999999999999 -0.19999999999999996 0.0
-0.29999999999999993 -0.19999999999999996 0.0
-0.19999999999999996 -0.19999999999999996 0.0
-0.09999999999999998 -0.19999999999999996 0.0
0 -0.19999999999999996 0.0
0.10000000000000009 -0.19999999999999996 0.0
0.20000000000000018 -0.19999999999999996 0.0
0.30000000000000004 -0.19999999999999996 0.0
0.40000000000000013 -0.19999999999999996 0.0
0.5 -0.19999999999999996 0.0
0.6000000000000001 -0.19999999999999996 0.0
0.7000000000000002 -0.19999999999999996 0.0
0.8 -0.19999999999999996 0.0
0.9000000000000001 -0.19999999999999996 0.0
1 -0.19999999999999996 0.0
-1 -0.09999999999999998 0.0
-0.9 -0.09999999999999998 0.0
-0.8 -0.09999999999999998 0.0
-0.7 -0.09999999999999998 0.0
-0.6 -0.09999999999999998 0.0
-0.5 -0.09999999999999998 0.0
-0.3999999999999999 -0.09999999999999998 0.0
-0.29999999999999993 -0.09999999999999998 0.0
-0.19999999999999996 -0.09999999999999998 0.0
-0.09999999999999998 -0.09999999999999998 0.0
0 -0.09999999999999998 0.0
0.10000000000000009 -0.09999999999999998 0.0
0.20000000000000018 -0.09999999999999998 0.0
0.30000000000000004 -0.09999999999999998 0.0
0.40000000000000013 -0.09999999999999998 0.0
0.5 -0.09999999999999998 0.0
0.6000000000000001 -0.09999999999999998 0.0
0.7000000000000002 -0.09999999999999998 0.0
0.8 -0.09999999999999998 0.0
0.9000000000000001 -0.09999999999999998 0.0
1 -0.09999999999999998 0.0
-1 0 0.0
-0.9 0 0.0
-0.8 0 0.0
-0.7 0 0.0
-0.6 0 0.0
-0.5 0 0.0
-0.3999999999999999 0 0.0
-0.29999999999999993 0 0.0
-0.19999999999999996 0 0.0
-0.09999999999999998 0 0.0
0 0 0.0
0.10000000000000009 0 0.0
0.20000000000000018 0 0.0
0.30000000000000004 0 0.0
0.40000000000000013 0 0.0
0.5 0 0.0
0.6000000000000001 0 0.0
0.7000000000000002 0 0.0
0.8 0 0.0
0.9000000000000001 0 0.0
1 0 0.0
-1 0.10000000000000009 0.0
-0.9 0.10000000000000009 0.0
-0.8 0.10000000000000009 0.0
-0.7 0.10000000000000009 0.0
-0.6 0.10000000000000009 0.0
-0.5 0.10000000000000009 0.0
-0.3999999999999999 0.10000000000000009 0.0
-0.29999999999999993 0.10000000000000009 0.0
-0.19999999999999996 0.10000000000000009 0.0
-0.09999999999999998 0.10000000000000009 0.0
0 0.10000000000000009 0.0
0.10000000000000009 0.10000000000000009 0.0
0.20000000000000018 0.10000000000000009 0.0
0.30000000000000004 0.10000000000000009 0.0
0.40000000000000013 0.10000000000000009 0.0
0.5 0.10000000000000009 0.0
0.6000000000000001 0.10000000000000009 0.0
0.7000000000000002 0.10000000000000009 0.0
0.8 0.10000000000000009 0.0
0.9000000000000001 0.10000000000000009 0.0
1 0.10000000000000009 0.0
-1 0.20000000000000018 0.0
-0.9 0.20000000000000018 0.0
-0.8 0.20000000000000018 0.0
-0.7 0.20000000000000018 0.0
-0.6 0.20000000000000018 0.0
-0.5 0.20000000000000018 0.0
-0.3999999999999999 0.20000000000000018 0.0
-0.29999999999999993 0.20000000000000018 0.0
-0.19999999999999996 0.20000000000000018 0.0
-0.09999999999999998 0.20000000000000018 0.0
0 0.20000000000000018 0.0
0.10000000000000009 0.20000000000000018 0.0
0.20000000000000018 0.20000000000000018 0.0
0.30000000000000004 0.20000000000000018 0.0
0.40000000000000013 0.20000000000000018 0.0
0.5 0.20000000000000018 0.0
0.6000000000000001 0.20000000000000018 0.0
0.7000000000000002 0.20000000000000018 0.0
0.8 0.20000000000000018 0.0
0.9000000000000001 0.20000000000000018 0.0
1 0.20000000000000018 0.0
-1 0.30000000000000004 0.0
-0.9 0.30000000000000004 0.0
-0.8 0.30000000000000004 0.0
-0.7 0.30000000000000004 0.0
-0.6 0.30000000000000004 0.0
-0.5 0.30000000000000004 0.0
-0.3999999999999999 0.30000000000000004 0.0
-0.29999999999999993 0.30000000000000004 0.0
-0.19999999999999996 0.30000000000000004 0.0
-0.09999999999999998 0.30000000000000004 0.0
0 0.30000000000000004 0.0
0.10000000000000009 0.30000000000000004 0.0
0.20000000000000018 0.30000000000000004 0.0
0.30000000000000004 0.30000000000000004 0.0
0.40000000000000013 0.30000000000000004 0.0
0.5 0.30000000000000004 0.0
0.6000000000000001 0.30000000000000004 0.0
0.7000000000000002 0.30000000000000004 0.0
0.8 0.30000000000000004 0.0
0.9000000000000001 0.30000000000000004 0.0
1 0.30000000000000004 0.0
-1 0.40000000000000013 0.0
-0.9 0.40000000000000013 0.0
-0.8 0.40000000000000013 0.0
-0.7 0.40000000000000013 0.0
-0.6 0.40000000000000013 0.0
-0.5 0.40000000000000013 0.0
-0.3999999999999999 0.40000000000000013 0.0
-0.29999999999999993 0.40000000000000013 0.0
-0.19999999999999996 0.40000000000000013 0.0
-0.09999999999999998 0.40000000000000013 0.0
0 0.40000000000000013 0.0
0.10000000000000009 0.40000000000000013 0.0
0.20000000000000018 0.40000000000000013 0.0
0.30000000000000004 0.40000000000000013 0.0
0.40000000000000013 0.40000000000000013 0.0
0.5 0.40000000000000013 0.0
0.6000000000000001 0.40000000000000013 0.0
0.7000000000000002 0.40000000000000013 0.0
0.8 0.40000000000000013 0.0
0.9000000000000001 0.40000000000000013 0.0
1 0.40000000000000013 0.0
-1 0.5 0.0
-0.9 0.5 0.0
-0.8 0.5 0.0
-0.7 0.5 0.0
-0.6 0.5 0.0
-0.5 0.5 0.0
-0.3999999999999999 0.5 0.0
-0.29999999999999993 0.5 0.0
-0.19999999999999996 0.5 0.0
-0.09999999999999998 0.5 0.0
0 0.5 0.0
0.10000000000000009 0.5 0.0
0.20000000000000018 0.5 0.0
0.30000000000000004 0.5 0.0
0.40000000000000013 0.5 0.0
0.5 0.5 0.0
0.6000000000000001 0.5 0.0
0.7000000000000002 0.5 0.0
0.8 0.5 0.0
0.9000000000000001 0.5 0.0
1 0.5 0.0
-1 0.6000000000000001 0.0
-0.9 0.6000000000000001 0.0
-0.8 0.6000000000000001 0.0
-0.7 0.6000000000000001 0.0
-0.6 0.6000000000000001 0.0
-0.5 0.6000000000000001 0.0
-0.3999999999999999 0.6000000000000001 0.0
-0.29999999999999993 0.6000000000000001 0.0
-0.19999999999999996 0.6000000000000001 0.0
-0.09999999999999998 0.6000000000000001 0.0
0 0.6000000000000001 0.0
0.10000000000000009 0.6000000000000001 0.0
0.20000000000000018 0.6000000000000001 0.0
0.30000000000000004 0.6000000000000001 0.0
0.40000000000000013 0.6000000000000001 0.0
0.5 0.6000000000000001 0.0
0.6000000000000001 0.6000000000000001 0.0
0.7000000000000002 0.6000000000000001 0.0
0.8 0.6000000000000001 0.0
0.9000000000000001 0.6000000000000001 0.0
1 0.6000000000000001 0.0
-1 0.7000000000000002 0.0
-0.9 0.7000000000000002 0.0
-0.8 0.7000000000000002 0.0
-0.7 0.7000000000000002 0.0
-0.6 0.7000000000000002 0.0
-0.5 0.7000000000000002 0.0
-0.3999999999999999 0.7000000000000002 0.0
-0.29999999999999993 0.7000000000000002 0.0
-0.19999999999999996 0.7000000000000002 0.0
-0.09999999999999998 0.7000000000000002 0.0
0 0.7000000000000002 0.0
0.10000000000000009 0.7000000000000002 0.0
0.20000000000000018 0.7000000000000002 0.0
0.30000000000000004 0.7000000000000002 0.0
0.40000000000000013 0.7000000000000002 0.0
0.5 0.7000000000000002 0.0
0.6000000000000001 0.7000000000000002 0.0
0.7000000000000002 0.7000000000000002 0.0
0.8 0.7000000000000002 0.0
0.9000000000000001 0.7000000000000002 0.0
1 0.7000000000000002 0.0
-1 0.8 0.0
-0.9 0.8 0.0
-0.8 0.8 0.0
-0.7 0.8 0.0
-0.6 0.8 0.0
-0.5 0.8 0.0
-0.3999999999999999 0.8 0.0
-0.29999999999999993 0.8 0.0
-0.19999999999999996 0.8 0.0
-0.09999999999999998 0.8 0.0
0 0.8 0.0
0.10000000000000009 0.8 0.0
0.20000000000000018 0.8 0.0
0.30000000000000004 0.8 0.0
0.40000000000000013 0.8 0.0
0.5 0.8 0.0
0.6000000000000001 0.8 0.0
0.7000000000000002 0.8 0.0
0.8 0.8 0.0
0.9000000000000001 0.8 0.0
1 0.8 0.0
-1 0.9000000000000001 0.0
-0.9 0.9000000000000001 0.0
-0.8 0.9000000000000001 0.0
-0.7 0.9000000000000001 0.0
-0.6 0.9000000000000001 0.0
-0.5 0.9000000000000001 0.0
-0.3999999999999999 0.9000000000000001 0.0
-0.29999999999999993 0.9000000000000001 0.0
-0.19999999999999996 0.9000000000000001 0.0
-0.09999999999999998 0.9000000000000001 0.0
0 0.9000000000000001 0.0
0.10000000000000009 0.9000000000000001 0.0
0.20000000000000018 0.9000000000000001 0.0
0.30000000000000004 0.9000000000000001 0.0
0.40000000000000013 0.9000000000000001 0.0
0.5 0.9000000000000001 0.0
0.6000000000000001 0.9000000000000001 0.0
0.7000000000000002 0.9000000000000001 0.0
0.8 0.9000000000000001 0.0
0.9000000000000001 0.9000000000000001 0.0
1 0.9000000000000001 0.0
-1 1 0.0
-0.9 1 0.0
-0.8 1 0.0
-0.7 1 0.0
-0.6 1 0.0
-0.5 1 0.0
-0.3999999999999999 1 0.0
-0.29999999999999993 1 0.0
-0.19999999999999996 1 0.0
-0.09999999999999998 1 0.0
0 1 0.0
0.10000000000000009 1 0.0
0.20000000000000018 1 0.0
0.30000000000000004 1 0.0
0.40000000000000013 1 0.0
0.5 1 0.0
0.6000000000000001 1 0.0
0.7000000000000002 1 0.0
0.8 1 0.0
0.9000000000000001 1 0.0
1 1 0.0


POINT_DATA 441
SCALARS level_set double 1
LOOKUP_TABLE default
0.9142135623730951
0.8453624047073711
0.7806248474865698
0.7206555615733703
0.66619037896906
0.6180339887498949
0.5770329614269007
0.5440306508910548
0.519803902718557
0.504987562112089
0.5
0.504987562112089
0.519803902718557
0.5440306508910551
0.577032961426901
0.6180339887498949
0.6661903789690602
0.7206555615733703
0.7806248474865698
0.8453624047073711
0.9142135623730951
0.8453624047073711
0.7727922061357855
0.7041594578792296
0.640175425099138
0.5816653826391966
0.5295630140987
0.4848857801796105
0.44868329805051377
0.42195444572928875
0.40553851381374173
0.4
0.40553851381374173
0.42195444572928875
0.4486832980505139
0.4848857801796106
0.5295630140987
0.5816653826391969
0.640175425099138
0.7041594578792296
0.7727922061357857
0.8453624047073711
0.7806248474865698
0.7041594578792296
0.6313708498984762
0.563014581273465
0.5
0.44339811320566047
0.39442719099991586
0.3544003745317532
0.32462112512353225
0.306225774829855
0.30000000000000004
0.306225774829855
0.32462112512353225
0.3544003745317532
0.3944271909999161
0.44339811320566047
0.5
0.563014581273465
0.6313708498984762
0.7041594578792296
0.7806248474865698
0.7206555615733703
0.640175425099138
0.563014581273465
0.48994949366116647
0.42195444572928864
0.36023252670426265
0.3062257748298549
0.2615773105863908
0.22801098892805172
0.20710678118654746
0.19999999999999996
0.20710678118654746
0.22801098892805183
0.2615773105863908
0.306225774829855
0.36023252670426265
0.42195444572928875
0.4899494936611667
0.563014581273465
0.640175425099138
0.7206555615733703
0.66619037896906
0.5816653826391966
0.5
0.42195444572928864
0.348528137423857
0.2810249675906654
0.2211102550927978
0.17082039324993692
0.13245553203367588
0.10827625302982191
0.09999999999999998
0.10827625302982191
0.13245553203367588
0.17082039324993692
0.2211102550927979
0.2810249675906654
0.34852813742385713
0.42195444572928886
0.5
0.5816653826391969
0.66619037896906
0.6180339887498949
0.5295630140987
0.44339811320566047
0.36023252670426265
0.2810249675906654
0.20710678118654757
0.1403124237432848
0.08309518948452999
0.038516480713450374
0.009901951359278516
0
0.009901951359278516
0.038516480713450485
0.0830951894845301
0.140312423743285
0.20710678118654757
0.28102496759066553
0.36023252670426276
0.44339811320566047
0.5295630140987002
0.6180339887498949
0.5770329614269007
0.4848857801796105
0.39442719099991586
0.3062257748298549
0.2211102550927978
0.1403124237432848
0.0656854249492379
-1.1102230246251565E-16
-0.05278640450004218
-0.08768943743823404
-0.10000000000000009
-0.08768943743823404
-0.05278640450004207
-5.551115123125783E-17
0.06568542494923812
0.1403124237432848
0.2211102550927979
0.306225774829855
0.39442719099991586
0.4848857801796106
0.5770329614269007
0.5440306508910548
0.44868329805051377
0.3544003745317532
0.2615773105863908
0.17082039324993692
0.08309518948452999
-1.1102230246251565E-16
-0.0757359312880716
-0.13944487245360115
-0.18377223398316217
-0.20000000000000007
-0.18377223398316211
-0.13944487245360104
-0.07573593128807149
0
0.08309518948452999
0.17082039324993692
0.261577310586391
0.3544003745317532
0.4486832980505139
0.5440306508910548
0.519803902718557
0.42195444572928875
0.32462112512353225
0.22801098892805172
0.13245553203367588
0.038516480713450374
-0.05278640450004218
-0.13944487245360115
-0.21715728752538105
-0.27639320225002106
-0.30000000000000004
-0.27639320225002106
-0.21715728752538094
-0.13944487245360104
-0.05278640450004196
0.038516480713450374
0.13245553203367588
0.22801098892805205
0.32462112512353225
0.42195444572928886
0.519803902718557
0.504987562112089
0.40553851381374173
0.306225774829855
0.20710678118654746
0.10827625302982191
0.009901951359278516
-0.08768943743823404
-0.18377223398316217
-0.27639320225002106
-0.35857864376269055
-0.4
-0.35857864376269044
-0.2763932022500209
-0.18377223398316206
-0.08768943743823382
0.009901951359278516
0.10827625302982202
0.20710678118654768
0.306225774829855
0.40553851381374184
0.504987562112089
0.5
0.4
0.30000000000000004
0.19999999999999996
0.09999999999999998
0
-0.10000000000000009
-0.20000000000000007
-0.30000000000000004
-0.4
-0.5
-0.3999999999999999
-0.2999999999999998
-0.19999999999999996
-0.09999999999999987
0
0.10000000000000009
0.20000000000000018
0.30000000000000004
0.40000000000000013
0.5
0.504987562112089
0.40553851381374173
0.306225774829855
0.20710678118654746
0.10827625302982191
0.009901951359278516
-0.08768943743823404
-0.18377223398316211
-0.27639320225002106
-0.35857864376269044
-0.3999999999999999
-0.35857864376269033
-0.27639320225002084
-0.183772233983162
-0.08768943743823382
0.009901951359278516
0.10827625302982202
0.2071067811865478
0.306225774829855
0.40553851381374184
0.504987562112089
0.519803902718557
0.42195444572928875
0.32462112512353225
0.22801098892805183
0.13245553203367588
0.038516480713450485
-0.05278640450004207
-0.13944487245360104
-0.21715728752538094
-0.2763932022500209
-0.2999999999999998
-0.27639320225002084
-0.21715728752538072
-0.13944487245360093
-0.05278640450004185
0.038516480713450485
0.132455532033676
0.22801098892805205
0.32462112512353225
0.42195444572928886
0.519803902718557
0.5440306508910551
0.4486832980505139
0.3544003745317532
0.2615773105863908
0.17082039324993692
0.0830951894845301
-5.551115123125783E-17
-0.07573593128807149
-0.13944487245360104
-0.18377223398316206
-0.19999999999999996
-0.183772233983162
-0.13944487245360093
-0.07573593128807143
1.1102230246251565E-16
0.0830951894845301
0.17082039324993703
0.261577310586391
0.3544003745317532
0.448683298050514
0.5440306508910551
0.577032961426901
0.4848857801796106
0.3944271909999161
0.306225774829855
0.2211102550927979
0.140312423743285
0.06568542494923812
0
-0.05278640450004196
-0.08768943743823382
-0.09999999999999987
-0.08768943743823382
-0.05278640450004185
1.1102230246251565E-16
0.06568542494923824
0.140312423743285
0.22111025509279802
0.30622577482985514
0.3944271909999161
0.4848857801796107
0.577032961426901
0.6180339887498949
0.5295630140987
0.44339811320566047
0.36023252670426265
0.2810249675906654
0.20710678118654757
0.1403124237432848
0.08309518948452999
0.038516480713450374
0.009901951359278516
0
0.009901951359278516
0.038516480713450485
0.0830951894845301
0.140312423743285
0.20710678118654757
0.28102496759066553
0.36023252670426276
0.44339811320566047
0.5295630140987002
0.6180339887498949
0.6661903789690602
0.5816653826391969
0.5
0.42195444572928875
0.34852813742385713
0.28102496759066553
0.2211102550927979
0.17082039324993692
0.13245553203367588
0.10827625302982202
0.10000000000000009
0.10827625302982202
0.132455532033676
0.17082039324993703
0.22111025509279802
0.28102496759066553
0.34852813742385713
0.42195444572928886
0.5
0.5816653826391969
0.6661903789690602
0.7206555615733703
0.640175425099138
0.563014581273465
0.4899494936611667
0.42195444572928886
0.36023252670426276
0.306225774829855
0.261577310586391
0.22801098892805205
0.20710678118654768
0.20000000000000018
0.2071067811865478
0.22801098892805205
0.261577310586391
0.30622577482985514
0.36023252670426276
0.42195444572928886
0.4899494936611668
0.563014581273465
0.6401754250991383
0.7206555615733703
0.7806248474865698
0.7041594578792296
0.6313708498984762
0.563014581273465
0.5
0.44339811320566047
0.39442719099991586
0.3544003745317532
0.32462112512353225
0.306225774829855
0.30000000000000004
0.306225774829855
0.32462112512353225
0.3544003745317532
0.3944271909999161
0.44339811320566047
0.5
0.563014581273465
0.6313708498984762
0.7041594578792296
0.7806248474865698
0.8453624047073711
0.7727922061357857
0.7041594578792296
0.640175425099138
0.5816653826391969
0.5295630140987002
0.4848857801796106
0.4486832980505139
0.42195444572928886
0.40553851381374184
0.40000000000000013
0.40553851381374184
0.42195444572928886
0.448683298050514
0.4848857801796107
0.5295630140987002
0.5816653826391969
0.6401754250991383
0.7041594578792296
0.7727922061357857
0.8453624047073711
0.9142135623730951
0.8453624047073711
0.7806248474865698
0.7206555615733703
0.66619037896906
0.6180339887498949
0.5770329614269007
0.5440306508910548
0.519803902718557
0.504987562112089
0.5
0.504987562112089
0.519803902718557
0.5440306508910551
0.577032961426901
0.6180339887498949
0.6661903789690602
0.7206555615733703
0.7806248474865698
0.8453624047073711
0.9142135623730951

