# vtk DataFile Version 4.1
Header:
ASCII

DATASET UNSTRUCTURED_GRID
POINTS 25 double
-1 -1 0.0
-0.5 -1 0.0
0 -1 0.0
0.5 -1 0.0
1 -1 0.0
-1 -0.5 0.0
-0.5 -0.5 0.0
0 -0.5 0.0
0.5 -0.5 0.0
1 -0.5 0.0
-1 0 0.0
-0.5 0 0.0
0 0 0.0
0.5 0 0.0
1 0 0.0
-1 0.5 0.0
-0.5 0.5 0.0
0 0.5 0.0
0.5 0.5 0.0
1 0.5 0.0
-1 1 0.0
-0.5 1 0.0
0 1 0.0
0.5 1 0.0
1 1 0.0


POINT_DATA 25
SCALARS nodal_phases double 1
LOOKUP_TABLE default
0
0
0
0
0
0
0
0
0
0
0
0
1
0
0
0
0
0
0
0
0
0
0
0
0

