# vtk DataFile Version 4.1
Header:
ASCII

DATASET UNSTRUCTURED_GRID
POINTS 25 double
-1 -1 0.0
-0.5 -1 0.0
0 -1 0.0
0.5 -1 0.0
1 -1 0.0
-1 -0.5 0.0
-0.5 -0.5 0.0
0 -0.5 0.0
0.5 -0.5 0.0
1 -0.5 0.0
-1 0 0.0
-0.5 0 0.0
0 0 0.0
0.5 0 0.0
1 0 0.0
-1 0.5 0.0
-0.5 0.5 0.0
0 0.5 0.0
0.5 0.5 0.0
1 0.5 0.0
-1 1 0.0
-0.5 1 0.0
0 1 0.0
0.5 1 0.0
1 1 0.0


POINT_DATA 25
SCALARS level_set double 1
LOOKUP_TABLE default
0.9142135623730951
0.6180339887498949
0.5
0.6180339887498949
0.9142135623730951
0.6180339887498949
0.20710678118654757
0
0.20710678118654757
0.6180339887498949
0.5
0
-0.5
0
0.5
0.6180339887498949
0.20710678118654757
0
0.20710678118654757
0.6180339887498949
0.9142135623730951
0.6180339887498949
0.5
0.6180339887498949
0.9142135623730951

