# vtk DataFile Version 4.1
Header:
ASCII

DATASET UNSTRUCTURED_GRID
POINTS 3600 double
-0.9833333333333333 -0.9833333333333333 0.0
-0.9833333333333334 -0.9500000000000001 0.0
-0.9833333333333333 -0.9166666666666666 0.0
-0.9833333333333334 -0.8833333333333333 0.0
-0.9833333333333334 -0.85 0.0
-0.9833333333333332 -0.8166666666666665 0.0
-0.9833333333333334 -0.7833333333333333 0.0
-0.9833333333333334 -0.75 0.0
-0.9833333333333334 -0.7166666666666667 0.0
-0.9833333333333334 -0.6833333333333333 0.0
-0.9833333333333334 -0.65 0.0
-0.9833333333333334 -0.6166666666666667 0.0
-0.9833333333333333 -0.5833333333333333 0.0
-0.9833333333333333 -0.5499999999999999 0.0
-0.9833333333333333 -0.5166666666666666 0.0
-0.9500000000000001 -0.9833333333333334 0.0
-0.9500000000000001 -0.9500000000000001 0.0
-0.95 -0.9166666666666665 0.0
-0.95 -0.8833333333333333 0.0
-0.9500000000000001 -0.85 0.0
-0.9499999999999998 -0.8166666666666667 0.0
-0.95 -0.7833333333333332 0.0
-0.95 -0.75 0.0
-0.95 -0.7166666666666667 0.0
-0.95 -0.6833333333333333 0.0
-0.9500000000000001 -0.65 0.0
-0.95 -0.6166666666666667 0.0
-0.95 -0.5833333333333333 0.0
-0.95 -0.55 0.0
-0.95 -0.5166666666666666 0.0
-0.9166666666666666 -0.9833333333333333 0.0
-0.9166666666666665 -0.9499999999999998 0.0
-0.9166666666666666 -0.9166666666666666 0.0
-0.9166666666666666 -0.8833333333333333 0.0
-0.9166666666666667 -0.85 0.0
-0.9166666666666667 -0.8166666666666667 0.0
-0.9166666666666666 -0.7833333333333333 0.0
-0.9166666666666667 -0.75 0.0
-0.9166666666666667 -0.7166666666666667 0.0
-0.9166666666666667 -0.6833333333333333 0.0
-0.9166666666666667 -0.65 0.0
-0.9166666666666667 -0.6166666666666667 0.0
-0.9166666666666667 -0.5833333333333333 0.0
-0.9166666666666666 -0.5499999999999999 0.0
-0.9166666666666666 -0.5166666666666666 0.0
-0.8833333333333333 -0.9833333333333333 0.0
-0.8833333333333333 -0.95 0.0
-0.8833333333333333 -0.9166666666666666 0.0
-0.8833333333333333 -0.8833333333333333 0.0
-0.8833333333333333 -0.85 0.0
-0.8833333333333333 -0.8166666666666667 0.0
-0.8833333333333333 -0.7833333333333333 0.0
-0.8833333333333333 -0.75 0.0
-0.8833333333333333 -0.7166666666666666 0.0
-0.8833333333333333 -0.6833333333333333 0.0
-0.8833333333333333 -0.65 0.0
-0.8833333333333333 -0.6166666666666667 0.0
-0.8833333333333333 -0.5833333333333333 0.0
-0.8833333333333333 -0.5499999999999999 0.0
-0.8833333333333333 -0.5166666666666666 0.0
-0.85 -0.9833333333333333 0.0
-0.85 -0.9500000000000001 0.0
-0.85 -0.9166666666666667 0.0
-0.85 -0.8833333333333333 0.0
-0.85 -0.85 0.0
-0.8499999999999999 -0.8166666666666665 0.0
-0.85 -0.7833333333333332 0.0
-0.85 -0.75 0.0
-0.85 -0.7166666666666666 0.0
-0.8499999999999999 -0.6833333333333332 0.0
-0.8499999999999999 -0.65 0.0
-0.85 -0.6166666666666667 0.0
-0.85 -0.5833333333333333 0.0
-0.85 -0.55 0.0
-0.85 -0.5166666666666666 0.0
-0.8166666666666665 -0.9833333333333332 0.0
-0.8166666666666665 -0.9499999999999998 0.0
-0.8166666666666667 -0.9166666666666666 0.0
-0.8166666666666667 -0.8833333333333333 0.0
-0.8166666666666667 -0.8499999999999999 0.0
-0.8166666666666665 -0.8166666666666665 0.0
-0.8166666666666667 -0.7833333333333333 0.0
-0.8166666666666667 -0.75 0.0
-0.8166666666666667 -0.7166666666666667 0.0
-0.8166666666666667 -0.6833333333333333 0.0
-0.8166666666666667 -0.65 0.0
-0.8166666666666667 -0.6166666666666667 0.0
-0.8166666666666667 -0.5833333333333333 0.0
-0.8166666666666665 -0.5499999999999999 0.0
-0.8166666666666667 -0.5166666666666666 0.0
-0.7833333333333333 -0.9833333333333335 0.0
-0.7833333333333333 -0.95 0.0
-0.7833333333333333 -0.9166666666666666 0.0
-0.7833333333333333 -0.8833333333333333 0.0
-0.7833333333333332 -0.8499999999999999 0.0
-0.7833333333333332 -0.8166666666666667 0.0
-0.7833333333333332 -0.7833333333333333 0.0
-0.7833333333333333 -0.75 0.0
-0.7833333333333332 -0.7166666666666667 0.0
-0.7833333333333334 -0.6833333333333333 0.0
-0.7833333333333333 -0.65 0.0
-0.7833333333333333 -0.6166666666666667 0.0
-0.7833333333333333 -0.5833333333333333 0.0
-0.7833333333333333 -0.55 0.0
-0.7833333333333334 -0.5166666666666667 0.0
-0.75 -0.9833333333333333 0.0
-0.75 -0.9500000000000001 0.0
-0.75 -0.9166666666666666 0.0
-0.75 -0.8833333333333333 0.0
-0.7499999999999999 -0.8499999999999999 0.0
-0.75 -0.8166666666666667 0.0
-0.75 -0.7833333333333334 0.0
-0.75 -0.75 0.0
-0.75 -0.7166666666666666 0.0
-0.75 -0.6833333333333333 0.0
-0.75 -0.65 0.0
-0.75 -0.6166666666666667 0.0
-0.75 -0.5833333333333334 0.0
-0.75 -0.5499999999999999 0.0
-0.75 -0.5166666666666667 0.0
-0.7166666666666668 -0.9833333333333335 0.0
-0.7166666666666667 -0.95 0.0
-0.7166666666666667 -0.9166666666666666 0.0
-0.7166666666666667 -0.8833333333333333 0.0
-0.7166666666666667 -0.8499999999999999 0.0
-0.7166666666666667 -0.8166666666666667 0.0
-0.7166666666666667 -0.7833333333333333 0.0
-0.7166666666666667 -0.75 0.0
-0.7166666666666667 -0.7166666666666667 0.0
-0.7166666666666666 -0.6833333333333333 0.0
-0.7166666666666667 -0.65 0.0
-0.7166666666666667 -0.6166666666666667 0.0
-0.7166666666666667 -0.5833333333333333 0.0
-0.7166666666666667 -0.55 0.0
-0.7166666666666668 -0.5166666666666667 0.0
-0.6833333333333333 -0.9833333333333333 0.0
-0.6833333333333332 -0.9499999999999998 0.0
-0.6833333333333333 -0.9166666666666667 0.0
-0.6833333333333333 -0.8833333333333333 0.0
-0.6833333333333332 -0.85 0.0
-0.6833333333333333 -0.8166666666666665 0.0
-0.6833333333333333 -0.7833333333333333 0.0
-0.6833333333333333 -0.75 0.0
-0.6833333333333333 -0.7166666666666667 0.0
-0.6833333333333333 -0.6833333333333333 0.0
-0.6833333333333333 -0.65 0.0
-0.6833333333333333 -0.6166666666666667 0.0
-0.6833333333333333 -0.5833333333333333 0.0
-0.6833333333333333 -0.5499999999999999 0.0
-0.6833333333333333 -0.5166666666666666 0.0
-0.6500000000000001 -0.9833333333333334 0.0
-0.6500000000000001 -0.9500000000000002 0.0
-0.6500000000000001 -0.9166666666666669 0.0
-0.6499999999999999 -0.8833333333333333 0.0
-0.6499999999999999 -0.85 0.0
-0.65 -0.8166666666666667 0.0
-0.65 -0.7833333333333333 0.0
-0.65 -0.75 0.0
-0.65 -0.7166666666666666 0.0
-0.65 -0.6833333333333333 0.0
-0.65 -0.65 0.0
-0.65 -0.6166666666666667 0.0
-0.6500000000000001 -0.5833333333333334 0.0
-0.6500000000000001 -0.55 0.0
-0.65 -0.5166666666666666 0.0
-0.6166666666666667 -0.9833333333333334 0.0
-0.6166666666666667 -0.9500000000000001 0.0
-0.6166666666666667 -0.9166666666666667 0.0
-0.6166666666666667 -0.8833333333333333 0.0
-0.6166666666666667 -0.85 0.0
-0.6166666666666667 -0.8166666666666667 0.0
-0.6166666666666667 -0.7833333333333333 0.0
-0.6166666666666667 -0.75 0.0
-0.6166666666666667 -0.7166666666666667 0.0
-0.6166666666666667 -0.6833333333333333 0.0
-0.6166666666666667 -0.65 0.0
-0.6166666666666667 -0.6166666666666667 0.0
-0.6166666666666667 -0.5833333333333333 0.0
-0.6166666666666667 -0.5499999999999999 0.0
-0.6166666666666667 -0.5166666666666666 0.0
-0.5833333333333333 -0.9833333333333333 0.0
-0.5833333333333331 -0.9499999999999998 0.0
-0.5833333333333334 -0.9166666666666666 0.0
-0.5833333333333333 -0.8833333333333333 0.0
-0.5833333333333333 -0.85 0.0
-0.5833333333333333 -0.8166666666666667 0.0
-0.5833333333333333 -0.7833333333333333 0.0
-0.5833333333333333 -0.75 0.0
-0.5833333333333333 -0.7166666666666667 0.0
-0.5833333333333334 -0.6833333333333333 0.0
-0.5833333333333333 -0.6500000000000001 0.0
-0.5833333333333333 -0.6166666666666667 0.0
-0.5833333333333334 -0.5833333333333333 0.0
-0.5833333333333333 -0.5499999999999999 0.0
-0.5833333333333333 -0.5166666666666666 0.0
-0.5499999999999999 -0.9833333333333334 0.0
-0.55 -0.9500000000000001 0.0
-0.5499999999999999 -0.9166666666666665 0.0
-0.5499999999999999 -0.8833333333333333 0.0
-0.55 -0.85 0.0
-0.5499999999999998 -0.8166666666666667 0.0
-0.5499999999999999 -0.7833333333333333 0.0
-0.55 -0.75 0.0
-0.55 -0.7166666666666667 0.0
-0.5499999999999999 -0.6833333333333332 0.0
-0.55 -0.65 0.0
-0.5499999999999999 -0.6166666666666667 0.0
-0.55 -0.5833333333333333 0.0
-0.55 -0.55 0.0
-0.5499999999999999 -0.5166666666666666 0.0
-0.5166666666666666 -0.9833333333333333 0.0
-0.5166666666666666 -0.9500000000000001 0.0
-0.5166666666666666 -0.9166666666666666 0.0
-0.5166666666666666 -0.8833333333333333 0.0
-0.5166666666666666 -0.85 0.0
-0.5166666666666666 -0.8166666666666665 0.0
-0.5166666666666667 -0.7833333333333333 0.0
-0.5166666666666666 -0.75 0.0
-0.5166666666666667 -0.7166666666666667 0.0
-0.5166666666666666 -0.6833333333333333 0.0
-0.5166666666666667 -0.6500000000000001 0.0
-0.5166666666666666 -0.6166666666666667 0.0
-0.5166666666666666 -0.5833333333333333 0.0
-0.5166666666666666 -0.5499999999999999 0.0
-0.5166666666666666 -0.5166666666666666 0.0
-0.48333333333333334 -0.9833333333333333 0.0
-0.48333333333333334 -0.9500000000000001 0.0
-0.48333333333333334 -0.9166666666666666 0.0
-0.4833333333333333 -0.8833333333333333 0.0
-0.4833333333333333 -0.85 0.0
-0.4833333333333333 -0.8166666666666665 0.0
-0.4833333333333334 -0.7833333333333333 0.0
-0.48333333333333334 -0.75 0.0
-0.4833333333333334 -0.7166666666666667 0.0
-0.48333333333333334 -0.6833333333333333 0.0
-0.48333333333333334 -0.65 0.0
-0.48333333333333334 -0.6166666666666667 0.0
-0.48333333333333334 -0.5833333333333333 0.0
-0.48333333333333334 -0.5499999999999999 0.0
-0.48333333333333334 -0.5166666666666666 0.0
-0.45 -0.9833333333333334 0.0
-0.45 -0.9500000000000001 0.0
-0.44999999999999996 -0.9166666666666665 0.0
-0.44999999999999996 -0.8833333333333333 0.0
-0.45 -0.85 0.0
-0.44999999999999996 -0.8166666666666667 0.0
-0.45 -0.7833333333333332 0.0
-0.45 -0.75 0.0
-0.45 -0.7166666666666667 0.0
-0.44999999999999996 -0.6833333333333333 0.0
-0.45000000000000007 -0.65 0.0
-0.45 -0.6166666666666667 0.0
-0.44999999999999996 -0.5833333333333333 0.0
-0.45 -0.55 0.0
-0.45 -0.5166666666666666 0.0
-0.4166666666666667 -0.9833333333333333 0.0
-0.41666666666666663 -0.9499999999999998 0.0
-0.4166666666666667 -0.9166666666666666 0.0
-0.41666666666666663 -0.8833333333333333 0.0
-0.4166666666666667 -0.85 0.0
-0.41666666666666663 -0.8166666666666667 0.0
[...]
POINT_DATA 3600
SCALARS level_set double 1
LOOKUP_TABLE default
0.8912631764845205
0.8683127905959458
0.8453624047073711
0.8224777787419733
0.8008985930017062
0.7793194072614391
0.7578857348998131
0.7378959729287466
0.7179062109576801
0.6981646750602799
0.6800096141921764
0.661854553324073
0.6440768145442218
0.6280246844711669
0.6119725543981118
0.8683127905959458
0.8453624047073711
0.8211723385168426
0.7982877125514447
0.7767085268111776
0.7538309440589923
0.7323972716973665
0.7124075097263
0.6910794987996027
0.6713379629022025
0.653182902034099
0.6336795545474518
0.6159018157676007
0.5998496856945458
0.5824822295143802
0.8453624047073712
0.8211723385168426
0.796982272326314
0.7740976463609162
0.751220063608731
0.7283424808565457
0.7069088084949197
0.6855807975682225
0.6642527866415253
0.6445112507441251
0.6250079032574779
0.6055045557708308
0.5877268169909797
0.5703593608108142
0.5529919046306486
0.8224777787419733
0.7982877125514447
0.7740976463609162
0.7499146233836003
0.7270370406314148
0.7041594578792295
0.6813640177524221
0.6600360068257249
0.6387079958990277
0.6175636107182023
0.5980602632315551
0.5785569157449081
0.559370757442581
0.5420033012624155
0.5246358450822499
0.8008985930017062
0.7767085268111776
0.751220063608731
0.7270370406314148
0.7041594578792296
0.6798965885523118
0.6571011484255043
0.6357731374988072
0.6129877146238034
0.591843329442978
0.5723399819563308
0.5513351215318425
0.5321489632295155
0.51478150704935
0.4959142114512368
0.7793194072614391
0.7538309440589923
0.7283424808565457
0.7041594578792295
0.6798965885523118
0.655633719225394
0.6328382790985866
0.6100528562235829
0.5872674333485791
0.5661230481677537
0.5451181877432654
0.524113327318777
0.50492716901645
0.48605987341833684
0.46719257782022366
0.7578857348998131
0.7323972716973665
0.7069088084949197
0.6813640177524221
0.6571011484255043
0.6328382790985866
0.6085854270234725
0.5858000041484688
0.563014581273465
0.5403346364591711
0.5193297760346827
0.49832491561019443
0.47755875982249146
0.45869146422437834
0.4398241686262651
0.7378959729287468
0.7124075097263
0.6855807975682225
0.6600360068257248
0.6357731374988072
0.6100528562235829
0.5858000041484688
0.563014581273465
0.5386595520693656
0.5159796072550715
0.49497474683058323
0.47230973085329064
0.45154357506558773
0.43267627946747456
0.41210230645913254
0.7179062109576803
0.6910794987996027
0.6642527866415253
0.6387079958990277
0.6129877146238034
0.5872674333485791
0.563014581273465
0.5386595520693656
0.5143045228652661
0.49162457805097204
0.46895956207367945
0.44629454609638686
0.42552839030868395
0.404954417300342
0.38438044429199997
0.6981646750602799
0.6713379629022025
0.6445112507441251
0.6175636107182023
0.591843329442978
0.5661230481677537
0.5403346364591711
0.5159796072550715
0.49162457805097204
0.4672844776838739
0.4446194617065813
0.42195444572928864
0.39942974117421237
0.3788557681658704
0.3582817951575284
0.6800096141921765
0.653182902034099
0.625007903257478
0.5980602632315551
0.5723399819563308
0.5451181877432653
0.5193297760346828
0.49497474683058323
0.46895956207367945
0.44461946170658123
0.42195444572928864
0.39747900962747806
0.37495430507240185
0.35438033206405983
0.33187927545299595
0.661854553324073
0.6336795545474518
0.6055045557708308
0.5785569157449081
0.5513351215318425
0.5241133273187769
0.49832491561019443
0.47230973085329064
0.44629454609638686
0.42195444572928864
0.3974790096274781
0.3730035735256676
0.3504788689705913
0.32797781235952744
0.30547675574846356
0.6440768145442218
0.6159018157676008
0.5877268169909797
0.559370757442581
0.5321489632295155
0.50492716901645
0.4775587598224915
0.45154357506558773
0.4255283903086839
0.39942974117421237
0.3749543050724018
0.3504788689705913
0.32602708081279314
0.30352602420172925
0.28102496759066536
0.6280246844711669
0.5998496856945458
0.5703593608108142
0.5420033012624155
0.51478150704935
0.48605987341833684
0.45869146422437834
0.43267627946747456
0.40495441730034193
0.3788557681658704
0.35438033206405983
0.32797781235952744
0.30352602420172925
0.2810249675906654
0.25638557212262614
0.6119725543981118
0.5824822295143802
0.5529919046306486
0.5246358450822499
0.4959142114512368
0.46719257782022366
0.4398241686262651
0.41210230645913254
0.38438044429199997
0.3582817951575284
0.33187927545299595
0.30547675574846356
0.28102496759066536
0.25638557212262614
0.23174617665458683
0.5964553217541967
0.5669649968704651
0.5374746719867335
0.5077559916300118
0.4790343579989987
0.4503127243679855
0.42137536175447005
0.3936534995873375
0.3659316374202049
0.3380301415395952
0.31162762183506276
0.2852251021305304
0.2587194844403345
0.23408008897229524
0.20944069350425593
0.582788312646532
0.5532979877628004
0.5225822606803703
0.49286358032364863
0.4641419466926355
0.43398908363273725
0.4050517210192219
0.37732985885208925
0.3479293867954023
0.3200278909147926
0.29362537121026017
0.2652535312979078
0.23874791360771194
0.2141085181396727
0.187175907689835
0.5691213035388674
0.5384055764564373
0.5076898493740072
0.4779711690172855
0.4478183059573873
0.4176654428974891
0.38872808028397365
0.3593276082272867
0.32992713617059966
0.30202564028999007
0.27365380037763765
0.24528196046528533
0.21877634277508942
0.1918437323252518
0.1649111218754141
0.5561747127963781
0.525458985713948
0.4947432586315179
0.4637756016281452
0.43362273856824707
0.4034698755083488
0.3730558188935452
0.3436553468368583
0.31425487478017133
0.2845984441664347
0.25622660425408234
0.22785476434172997
0.19926230622740213
0.17232969577756446
0.1453970853277268
0.5451739426177628
0.5144582155353327
0.4826757645884857
0.451708107585113
0.4215552445252148
0.39012760335229457
0.359713546737491
0.33031307468080406
0.2993720533656833
0.26971562275194666
0.2413437828395943
0.21109147706077636
0.1824990189464485
0.15556640849661085
0.12632467390814187
0.5341731724391474
0.5023907214923005
0.4706082705454534
0.4396406135420808
0.4082129723691606
0.37678533119624036
0.3463712745814368
0.315430253266316
0.28448923195119524
0.2548328013374586
0.22458049555864068
0.19432818977982275
0.16573573166549488
0.13649399707702592
0.10725226248855693
0.5241016340555483
0.4923191831087013
0.46053673216185437
0.42851466874384947
0.3970870275709293
0.3656593863980091
0.33396665563948924
0.30302563432436846
0.2720846130092477
0.24085677075392528
0.21060446497510732
0.18035215919628939
0.1498053824196589
0.12056364783118993
0.09132191324272093
0.5160260513313825
0.4842436003845354
0.451627114721446
0.41960505130344117
0.388177410130521
0.35573296992860215
0.3240402391700823
0.2930992178549615
0.2608958391231347
0.22966799686781228
0.19941569108899432
0.16756387212420237
0.1370170953475719
0.10777536075910293
0.07646234365236108
0.5079504686072165
0.4753339829441271
0.44271749728103765
0.4106954338630328
0.37825099366111403
0.34580655345919514
0.31411382270067534
0.2819104439688485
0.24970706523702166
0.21847922298169925
0.1866274040169073
0.1547755850521154
0.12422880827548487
0.09291579116874307
0.061602774062001216
0.5010262697859343
0.4684097841228449
0.43579329845975545
0.40299623697573816
0.37055179677381933
0.3381073565719005
0.3054535440420059
0.2732501653101791
0.24104678657835227
0.2086010448220717
0.17674922585727976
0.14489740689248784
0.11276914364632928
0.08145612653958748
0.050143109432845626
0.49608748958377835
0.46347100392068885
0.4303213211545731
0.39752425967055577
0.365079819468637
0.3319755731406748
0.29932176061078014
0.26711838187895337
0.2340787173311842
0.20163297557490362
0.16978115661011167
0.1368376472245365
0.10470938397837795
0.07339636687163614
0.040604932981455
0.49114870938162225
0.4579990266155065
0.42484934384939077
0.39205228236537343
0.3589480360374112
0.325843789709449
0.2931899771795544
0.2601503126317853
0.22711064808401613
0.19466490632773556
0.16172139694216037
0.1287778875565852
0.09664962431042663
0.06385819042024553
0.031066756530064386
0.4875814603770162
0.4544317776109005
0.4212820948447848
0.38806330501413694
0.3549590586861747
0.3218548123582125
0.2886683134176612
0.25562864886989206
0.22258898432212293
0.18945056296266863
0.15650705357709344
0.12356354419151827
0.090501160579761
0.057709726689579896
0.024918292799398743
0.4859189396729866
0.45276925690687087
0.41943592357353754
0.38621713374288974
0.3531128874149275
0.3197795540815942
0.2865930551410429
0.25355339059327375
0.22022005725994043
0.18708163590048613
0.15413812651491093
0.12080479318157764
0.08774240956982035
0.05495097567963925
0.021617642346305907
0.484256418968957
0.4509230856356236
0.41758975230229034
0.3843709624716425
0.35103762913830916
0.3177042958049759
0.2845177968644246
0.25118446353109125
0.21785113019775793
0.18471270883830362
0.15137937550497027
0.118046042171637
0.0849836585598797
0.051650325226546404
0.018316991893213067
0.48416459368534814
0.4508312603520148
0.41749792701868155
0.38425641896895696
0.35092308563562363
0.3175897523022903
0.2843709624716425
0.2510376291383092
0.2177042958049758
0.18451779686442454
0.15118446353109122
0.11785113019775792
0.0847127088383036
0.05137937550497031
0.01804604217163697
0.4858271143893778
0.4524937810560445
0.41934409828992875
0.38610259024020416
0.3527692569068709
0.31966501057890867
0.2864462207482608
0.2531128874149275
0.22007322286715833
0.18688672392660705
0.15355339059327372
0.12060988120769855
0.08747145984824425
0.054138126514910956
0.02134669262472981
0.4874896350934075
0.45433995232729174
0.42119026956117595
0.3879487615114514
0.3548445151834892
0.321740268855527
0.2885214790248791
0.25548181447711
0.2224421499293408
0.18925565098878955
0.15631214160321438
0.12336863221763922
0.09023021085818489
0.05743877696800379
0.024647343077822646
0.49088211083010913
0.45773242806399334
0.42458274529787765
0.39172237930235176
0.35861813297438955
0.3255138866464273
0.29277183427158326
0.2597321697238141
0.22669250517604494
0.19411906111734395
0.16117555173176876
0.1282320423461936
0.095910415918707
0.06311898202852588
0.030327548138344738
0.4958208910322651
0.4626712082661494
0.43005472260306
0.3971943566075341
0.3640901102795719
0.33164567007765305
0.298903617702809
0.26586395315503986
0.23366057442321303
0.20108713036451206
0.16814362097893687
0.13629180201414492
0.1039701755866583
0.0711787416964772
0.039865724589735384
0.5007596712344211
0.4681431855713317
0.43552669990824233
0.40266633391271645
0.3702218937107976
0.3377774535088788
0.30503540113403477
0.27283202240220794
0.24062864367038117
0.2080551996116802
0.1762033806468882
0.14435156168209623
0.11202993525460962
0.08071691814786786
0.04940390104112604
0.5075334512490953
0.4749169655860059
0.4423004799229165
0.4101870343485335
0.3777425941466147
0.3452981539446959
0.3134826439923223
0.2812792652604955
0.24907588652866874
0.21767946638871233
0.18582764742392036
0.15397582845912838
0.12319316701634847
0.0918801499096067
0.060567132802864895
0.5156090339732614
0.4829925483101719
0.45121009736332485
0.41909665178894184
0.38665221158702306
0.3552245704141029
0.32340906046172935
0.2912056817299025
0.2602646604147817
0.2288682402748253
0.19701642131003333
0.1667641155312154
0.13598145408843546
0.1046684369816937
0.07542670239322474
0.5236846166974274
0.49190216575058027
0.4601197148037332
0.42800626922935026
0.39657862805643007
0.36515098688350983
0.3333354769311363
0.3023944556160155
0.2714534343008947
0.2400570141609383
0.20980470838212034
0.1795524026033024
0.14876974116052247
0.11952800657205356
0.09028627198358462
0.5336398105069392
0.5018573595600921
0.4700749086132451
0.43900322448556983
0.40757558331264965
0.37614794213972946
0.34560099995221993
0.31465997863709916
0.2837189573219783
0.25389256840422586
0.22364026262540787
0.19338795684658994
0.16458116959617924
0.13533943500771034
0.10609770041924138
0.5446405806855545
0.5128581297387074
0.48214240265627734
0.45107071852860214
0.4196430773556819
0.38949021429578373
0.3589432721082742
0.3280022507931534
0.29860177873646643
0.26877538981871396
0.23852308403989597
0.21015124412754363
0.1813444568771329
0.152102722288664
0.12517011183882637
0.5556413508641698
0.5249256237817397
0.49420989669930954
0.46313821257163434
0.4329853495117362
0.402832486451838
0.37228554426432847
0.3428850722076415
0.3134846001509545
0.283658211233202
0.25528637132084964
0.22691453140849727
0.19810774415808657
0.17117513370824897
0.14424252325841133
0.5685086024395183
0.5377928753570882
0.507077148274658
0.47725555430284305
0.4471026912429449
0.41694982818304677
0.38788877533919663
0.35848830328250963
0.3290878312258226
0.3010409801860801
0.27266914027372774
0.24429730036137542
0.21762973528419033
0.19069712483435272
0.1637645143845151
0.5821756115471829
0.5514598844647527
0.5219695595810211
0.49214796560920615
0.46199510254930803
0.4332734689182949
0.40421241607444475
0.37481194401775775
0.3470900818506251
0.31904323081088265
0.2906713908985303
0.2642688711939979
0.23760130611681285
0.21066869566697521
0.1860293001989359
0.5958426206548475
0.5663522957711159
0.5368619708873843
0.5070403769155694
0.47831874328455615
0.449597109653543
0.42053605680969286
0.3928141946425603
0.3650923324754277
0.3370454814356852
0.3106429617311528
0.2842404420266204
0.2575728769494353
0.2329334814813961
0.20829408601335678
0.6113148913445566
0.581824566460825
0.5523342415770933
0.5238859253732762
0.495164291742263
0.46644265811124985
0.4389708299211507
0.41124896775401815
0.3835271055868856
0.3573182533561675
0.33091573365163507
0.3045132139471026
0.2799557981621777
0.25531640269413847
0.23067700722609913
0.6273670214176117
0.5978766965338801
0.569701697757259
0.5412533815534418
0.5125317479224287
0.48530995370936303
0.4578381255192639
0.4301162633521313
0.4041010785952276
0.37789222636450953
0.3514897066599771
0.32701427055816656
0.3024568547732416
0.27781745930520235
0.25531640269413847
0.6434191514906668
0.6152441527140458
0.5870691539374246
0.5586208377336074
0.5313990435205418
0.5041772493074762
0.47670542111737707
0.45069023636047334
0.4246750516035696
0.39846619937285155
0.37399076327104097
0.34951532716923045
0.3249579113843055
0.30245685477324163
0.2799557981621778
0.6611804100148013
0.6330054112381802
0.6048304124615591
0.5778061592759876
0.550584365062922
0.5233625708498564
0.4974948378337923
0.47147965307688855
0.4454644683199848
0.42104923566702984
0.39657379956521926
0.37209836346340874
0.3495153271692305
0.3270142705581667
0.3045132139471028
0.6793354708829047
0.6511604721062836
0.6243337599482062
0.5973095067626346
0.570087712549569
0.5443674312743447
0.5184996982582806
0.4924845135013769
0.4681294842972774
0.4437142516443225
0.4192388155425119
0.3965737995652193
0.373990763271041
0.3514897066599772
0.3309157336516352
0.6974905317510081
0.6706638195929306
0.6438371074348532
0.6168128542492817
0.5910925729740574
0.5653722916988331
0.539504558682769
0.5151495294786695
0.49079450027457006
0.46637926762161513
0.4437142516443225
0.4210492356670299
0.39846619937285166
0.3778922263645096
0.35731825335616757
0.717237086479865
0.6904103743217874
0.6635836621637101
0.6379792899248745
0.6122590086496502
0.5865387273744259
0.5622297781089172
0.5378747489048177
0.5135197197007183
0.4907945002745701
0.4681294842972775
0.44546446831998493
0.42467505160356966
0.4041010785952277
0.3835271055868857
0.7372268484509314
0.7104001362928539
0.6849116730904072
0.6593073008515716
0.6335870195763473
0.6093241502494295
0.5850152009839209
0.5606601717798214
0.5378747489048178
0.5151495294786695
0.49248451350137695
0.4714796530768886
0.4506902363604734
0.4301162633521314
0.4112489677540182
0.7572166104219977
0.7317281472195512
0.7062396840171044
0.6806353117782687
0.6563724424513511
0.6321095731244333
0.6078006238589246
0.5850152009839209
0.5622297781089172
0.539504558682769
0.5184996982582807
0.49749483783379234
0.4767054211173771
0.45783812551926395
0.4389708299211508
0.77867020875548
0.7531817455530332
0.7276932823505865
0.7034668145918633
0.6792039452649457
0.6549410759380279
0.6321095731244333
0.6093241502494295
0.5865387273744258
0.5653722916988331
0.5443674312743447
0.5233625708498564
0.5041772493074762
0.48530995370936303
0.46644265811124985
0.8002493944957471
0.7747609312933004
0.7505708651027719
0.7263443973440488
0.702081528017131
0.6792039452649457
0.6563724424513511
0.6335870195763473
0.6122590086496501
0.5910925729740574
0.570087712549569
0.550584365062922
0.5313990435205418
0.5125317479224287
0.4951642917422631
0.8218285802360142
0.7976385140454857
0.7734484478549571
0.7492219800962341
0.7263443973440488
0.7034668145918634
0.6806353117782687
0.6593073008515716
0.6379792899248744
0.6168128542492817
0.5973095067626346
0.5778061592759876
0.5586208377336074
0.5412533815534419
0.5238859253732764
0.8447425645563942
0.8205524983658657
0.7963624321753373
0.7734484478549573
0.7505708651027719
0.7276932823505866
0.7062396840171044
0.6849116730904072
0.66358366216371
0.6438371074348532
0.6243337599482062
0.6048304124615591
0.5870691539374246
0.5697016977572591
0.5523342415770935
0.8676929504449689
0.8435028842544404
0.8205524983658659
0.7976385140454858
0.7747609312933004
0.7531817455530332
0.7317281472195512
0.7104001362928539
0.6904103743217874
0.6706638195929306
0.6511604721062836
0.6330054112381801
0.6152441527140456
0.5978766965338801
0.581824566460825
0.8906433363335435
0.8676929504449689
0.8447425645563942
0.8218285802360142
0.8002493944957471
0.77867020875548
0.7572166104219978
0.7372268484509313
0.717237086479865
0.6974905317510081
0.6793354708829047
0.6611804100148012
0.6434191514906666
0.6273670214176117
0.6113148913445566
0.5964553217541968
0.5827883126465321
0.5691213035388674
0.5561747127963781
0.5451739426177628
0.5341731724391475
0.5241016340555483
0.5160260513313825
0.5079504686072165
0.5010262697859343
0.4960874895837783
0.4911487093816223
0.4875814603770162
0.4859189396729866
0.484256418968957
0.5669649968704651
0.5532979877628004
0.5384055764564372
0.525458985713948
0.5144582155353327
0.5023907214923005
0.4923191831087013
0.4842436003845354
0.4753339829441271
0.4684097841228449
0.46347100392068885
0.4579990266155065
0.4544317776109005
0.45276925690687087
0.45092308563562367
0.5374746719867335
0.5225822606803703
0.5076898493740071
0.4947432586315179
0.48267576458848566
0.4706082705454534
0.46053673216185437
0.451627114721446
0.4427174972810377
0.43579329845975545
0.4303213211545731
0.42484934384939077
0.4212820948447848
0.41943592357353754
0.41758975230229034
0.5077559916300118
0.49286358032364863
0.4779711690172855
0.46377560162814524
0.451708107585113
0.4396406135420807
0.42851466874384947
0.41960505130344117
0.41069543386303276
0.40299623697573816
0.3975242596705558
0.39205228236537343
0.388063305014137
0.3862171337428897
0.3843709624716425
0.47903435799899863
0.4641419466926355
0.4478183059573873
0.43362273856824707
0.4215552445252148
0.40821297236916065
0.39708702757092934
0.388177410130521
0.37825099366111403
0.37055179677381933
0.365079819468637
0.3589480360374112
0.3549590586861747
0.3531128874149275
0.35103762913830916
0.4503127243679855
0.43398908363273725
0.4176654428974891
0.40346987550834884
0.3901276033522946
0.37678533119624047
0.3656593863980091
0.35573296992860215
0.3458065534591952
0.3381073565719005
0.3319755731406748
0.325843789709449
0.3218548123582125
0.3197795540815942
0.31770429580497583
0.42137536175447005
0.4050517210192218
0.38872808028397365
0.3730558188935452
0.359713546737491
0.3463712745814368
0.33396665563948924
0.3240402391700823
0.31411382270067534
0.3054535440420059
0.2993217606107802
0.2931899771795544
0.2886683134176612
0.28659305514104294
0.2845177968644246
0.3936534995873375
0.37732985885208925
0.3593276082272867
0.3436553468368583
0.33031307468080406
0.315430253266316
0.30302563432436846
0.2930992178549615
0.2819104439688485
0.2732501653101791
0.26711838187895337
0.2601503126317853
0.25562864886989206
0.25355339059327375
0.25118446353109125
0.3659316374202049
0.3479293867954023
0.3299271361705997
0.31425487478017133
0.2993720533656833
0.28448923195119524
0.2720846130092477
0.2608958391231347
0.24970706523702166
0.24104678657835227
0.23407871733118418
0.2271106480840161
0.2225889843221229
0.2202200572599404